Cpptraj Generated Restart                                                       
 6188  4.0000001E-01
  90.3775940 180.8386688  24.0133953  91.3549347 180.8575134  23.7592926
  90.1464615 179.8885345  24.2662201  90.1977615 181.4256592  24.8153954
  89.3907547 180.9534760  22.8584824  88.3849487 180.7792664  23.2407246
  89.5036926 182.2645721  22.0600014  90.5017395 182.2186127  21.6242371
  88.7766571 182.2005920  21.2504158  89.3285370 183.5491333  22.9032059
  88.5266418 183.3936768  23.6249332  90.1979370 183.6103058  23.5578041
  89.2387009 185.1376953  22.0837231  87.4681244 185.2644501  21.5811863
  86.9109268 185.3980103  22.5084381  87.3987579 186.1946411  21.0172386
  87.1551208 184.4343872  20.9478397  89.4396744 179.8056641  21.8758030
  90.4859238 179.2713776  21.5040340  88.3556290 179.4549561  21.2084999
  87.4945526 179.8923492  21.5040417  88.2889099 178.4178314  20.1363049
  88.9315643 177.5799103  20.4064560  86.8925858 177.7281647  20.0529499
  86.1944656 178.5097961  19.7533169  86.8590622 176.5845642  19.0003395
  87.3450775 175.6875916  19.3841839  85.8378830 176.2475281  18.8222694
  87.3079147 176.8959808  18.0571289  86.4390335 177.2593079  21.4466228
  85.8208313 176.3745422  21.2945957  87.3289642 176.8990326  21.9626942
  85.6052017 178.2730255  22.2467136  84.6940536 178.5346985  21.7087059
  85.2883759 177.7698212  23.1602268  86.1270828 179.2003174  22.4830818
  88.8421707 178.9990234  18.8402882  88.6629715 180.1168671  18.4406357
  89.7305069 178.1896362  18.1980667  89.8836517 177.2642822  18.5727291
  90.3876038 178.4037323  16.9137821  89.9382706 179.3029938  16.4924564
  91.8714294 178.6330261  16.9682198  92.2747192 178.7957306  15.9687271
  91.9912262 179.5663147  17.5184402  92.6776123 177.5087891  17.6715279
  92.3498230 176.2972870  17.6387863  93.6935959 177.7546997  18.4191399
  94.1718445 176.9995422  18.8893642  94.1681290 178.6445160  18.3630848
  89.9065170 177.4259033  15.8292065  90.1534958 177.6191254  14.6385469
  89.1958084 176.3906097  16.2621899  89.1173782 176.2744904  17.2624245
  88.7893906 175.2502136  15.4544182  89.5709152 174.8204041  14.8278675
  88.2225494 174.1049347  16.3039951  89.0092010 173.5926056  16.8578930
  87.3649139 174.4786530  16.8633728  87.6202164 173.0231323  15.4564648
  88.4654694 172.2360992  14.6882143  89.5304947 172.4152527  14.6834383
  87.9676056 171.2662506  13.8070984  88.6647491 170.6295166  13.2827282
  86.5556259 171.1070251  13.7113657  86.1123428 170.4188080  13.0069017
  85.7302933 171.9743042  14.4558125  84.6655273 171.8926849  14.2945690
  86.2026138 172.9276123  15.3686781  85.5906754 173.5597382  15.9950609
  87.7975616 175.8408203  14.4238644  86.8512268 176.5850372  14.6821756
  88.0413132 175.4979095  13.1437502  88.7851944 174.8588409  12.9022284
  87.1446457 175.9869843  12.0555983  86.8401337 177.0244904  12.1932440
  87.8326416 175.9584045  10.7256184  88.7128754 176.5971527  10.7982073
  88.1164322 174.9438782  10.4457788  87.0163193 176.5225830   9.5454416
  86.0740509 177.2917023   9.8299551  87.3478394 176.3069000   8.3525047
  85.8728333 175.0974274  11.9606981  85.7248840 173.9954529  11.4162703
  84.8190308 175.6635895  12.5666800  85.0441208 176.5700531  12.9510498
  83.4901657 175.0139923  12.8504772  83.6158829 174.1231995  13.4659157
  82.5959473 176.0057220  13.6770124  81.5512009 175.6979980  13.6333323
  83.0065231 176.0376587  15.1387043  84.0510788 176.3376923  15.2222576
  82.3639603 176.6457062  15.7754869  83.0176468 174.9959106  15.4592419
  82.5487137 177.3171082  13.1588917  82.0128784 177.8707733  13.7315388
  82.6595230 174.5314636  11.6014690  81.7098618 173.7769623  11.6993361
  83.1088638 174.9745178  10.4312382  83.9869003 175.4683228  10.3582706
  82.6380920 174.4427490   9.1747332  81.6036224 174.1071777   9.2480545
  82.6884308 175.5453644   8.1427593  81.9672928 175.3061371   7.3612065
  82.4484100 176.5369110   8.5265856  83.9671021 175.6347504   7.7022009
  84.1148071 176.3497009   7.0787973  83.3255386 173.1161804   8.7249250
  82.7968750 172.4993744   7.8012400  84.3480988 172.6513214   9.4447336
  84.8436737 173.1848907  10.1446047  85.0158691 171.3851166   9.0707006
  85.1314011 171.4647675   7.9897685  86.3235779 171.2435150   9.7944031
  86.1589127 171.4590302  10.8501215  86.7315369 170.2327423   9.7930079
  87.4333038 172.1874542   9.2229376  87.1149750 173.2175903   9.3828802
  88.7542343 172.0627441  10.0026226  89.3216629 171.1393890   9.8863211
  89.3953629 172.9153900   9.7788916  88.4774094 172.0489960  11.0567961
  87.6924438 171.8576508   7.7477484  86.8289032 172.1200562   7.1365623
  88.5426254 172.4612885   7.4300866  88.0024338 170.8167419   7.6554317
  84.1515884 170.1227875   9.1861277  84.2908249 169.2337494   8.3297901
  83.2474442 169.9576263  10.1811428  83.1135406 170.6785126  11.4336128
  82.3773499 171.4739990  11.3182163  84.0410995 171.1199493  11.7981071
  82.5718765 169.6016235  12.4378862  82.1779022 170.1119385  13.3167830
  83.3724976 168.9020844  12.6782122  81.5729141 168.8375244  11.5255213
  80.5820084 169.2807465  11.4266777  81.5559845 167.8055573  11.8760309
  82.1828842 168.9085083  10.1313019  82.7696762 167.9936981  10.0482426
  81.1168594 169.0219727   8.9919338  80.7134476 168.0136108   8.5102940
  80.6695709 170.2204590   8.6527576  81.2222519 171.0137939   8.9447308
  79.5169830 170.4959869   7.7715640  78.7891693 169.7215424   8.0137014
  78.7965164 171.8231201   8.0214338  78.0030289 171.9629974   7.2873235
  78.0246124 171.7716064   9.3744354  78.8108902 171.8165894  10.1279945
  77.2384262 172.5211487   9.2839584  77.5147400 170.8164520   9.5002508
  79.6351700 172.9848328   7.9847741  80.4105911 172.7591705   7.4657297
  79.8289719 170.3471985   6.2645202  79.0157776 170.0661469   5.4142022
  81.1882477 170.3283386   5.9310164  81.9346619 170.4885101   6.5923095
  81.7004242 169.8773041   4.6534109  80.9315643 170.1759949   3.9408567
  82.9623871 170.5780182   4.1873660  83.3446121 170.1656494   3.2535806
  82.6839752 171.6124725   3.9860651  83.9458237 170.5132904   5.1900778
  84.5685959 171.2221069   5.0130610  81.9273376 168.3615875   4.5897865
  82.1744308 167.8906250   3.4316468  81.8235245 167.6079254   5.7017007
  81.5477219 168.1038513   6.5372252  81.9081955 166.1262207   5.7044387
  82.0197830 165.8611145   6.7558036  80.5766373 165.4744568   5.2748780
  80.3335190 165.8578186   4.2839012  80.7492752 164.4003143   5.2077456
  79.5219574 165.7506104   6.3599906  79.4797668 165.0651245   7.5301962
  78.4704361 165.5847015   8.1636000  78.0726471 165.1532898   9.0702658
  77.8867264 166.6149445   7.5341520  77.0982666 167.1524506   7.8651066
  78.5518723 166.7322693   6.3257380  78.1997681 167.2921906   5.4719696
  83.1940231 165.5305023   5.0857277  83.1943283 164.4319763   4.5280228
  84.3659897 166.2170105   5.1717491  84.4251099 167.0550690   5.7323399
  85.6522522 165.8692474   4.4642601  85.4835281 166.1544037   3.4258413
  86.8165436 166.6802826   4.9958076  86.8614807 166.5729828   6.0795817
  87.7083740 166.1842346   4.6128345  86.7727509 168.1342926   4.6116524
  86.8159943 168.1823425   3.5235708  85.7925949 168.4781647   4.9420209
  87.9689789 169.2793732   5.3486090  89.4945068 168.5023193   4.7472215
  89.4293823 168.3519440   3.6696093  90.3308105 169.1863861   4.8913326
  89.6184998 167.5707397   5.2993779  86.0109634 164.3983765   4.5713649
  86.5192261 163.8674927   3.5444427  85.7774811 163.7564087   5.7290239
  85.0772781 164.2045288   6.3026133  86.1096420 162.3406982   5.9089508
  87.1934433 162.2403870   5.8505192  85.7517242 161.9171448   7.3273554
  86.2060699 160.9545593   7.5621052  86.1651230 162.6625214   8.0067739
  84.2053986 161.9191132   7.4677863  83.5609283 163.1454773   7.8408289
  84.1441269 164.0392303   8.0066128  82.1641388 163.1056976   7.9214659
  81.6936646 163.9793091   8.3479223  81.3852081 161.9624329   7.6022630
  80.0618515 161.8626862   7.7854843  79.6524200 162.7103729   7.5973587
  82.0883179 160.7569275   7.3621778  81.5626678 159.8144379   7.3197231
  83.4712067 160.7192535   7.1893682  84.0263443 159.8188934   6.9712281
  85.4774475 161.4068909   4.8719001  86.0211563 160.3088837   4.7189631
  84.4190750 161.7463837   4.1286798  84.0573959 162.6839905   4.2295990
  83.7264862 160.9457397   3.1432974  83.7871475 159.8847809   3.3857136
  82.2571793 161.3584290   3.1887591  81.9717255 161.4149017   4.2392006
  82.2000580 162.3616791   2.7664666  81.2083817 160.4022522   2.5133872
  81.5154572 160.0666351   1.5228498  80.8659592 159.1502838   3.3700554
  80.0710220 159.4239349   4.0638165  80.3581390 158.4285278   2.7303057
  81.7678757 158.7927551   3.8668587  79.8621368 161.1541748   2.3316383
  80.0804901 161.9738770   1.6471652  79.1343002 160.4876556   1.8689313
  79.4707870 161.5771637   3.2568524  84.3396835 161.0752716   1.7156849
  84.0526962 160.2792053   0.8143267  85.1715088 162.0820770   1.5225133
  85.4705582 162.6512299   2.3014429  85.9393692 162.2600098   0.2462143
  87.0020065 162.0414886   0.3517905  85.5783463 161.6100464  -0.5508560
  85.8096619 163.6805878  -0.3380955  84.7024231 164.2496796  -0.3052890
  86.8895874 164.2235718  -0.8934533  87.7497482 163.6944275  -0.8782840
  86.8842087 165.4557953  -1.7323300  86.1894226 166.1711884  -1.2923528
  88.2925873 166.0518494  -1.5399477  88.3435593 167.0043793  -2.0673876
  88.5463715 166.2275543  -0.4945680  89.1708527 165.0980835  -2.1338334
  89.9529648 165.5452881  -2.4653630  86.6086807 165.1656952  -3.2356384
  86.5765762 163.9912109  -3.6512246  86.3212128 166.1703033  -4.0253911
  86.4418030 167.1152802  -3.6898797  85.8870468 165.9522858  -5.3772545
  85.5177078 166.9174194  -5.7240014  87.1174469 165.4786987  -6.2357321
  87.9407501 166.0944519  -5.8736243  87.4185944 164.4532318  -6.0216308
  87.0741730 165.7586212  -7.7850838  86.1604614 166.3885193  -8.3288717
  87.9865952 165.1939240  -8.4538994  84.6374359 165.0096893  -5.5729818
  84.7833786 163.9370117  -6.1708126  83.4272079 165.3944702  -5.0692410
  83.3137512 166.2101746  -4.4845595  82.1557236 164.7252350  -5.3906879
  82.3176804 163.7844543  -5.9168034  81.3574905 164.5048523  -4.0754056
  81.2757568 165.4740753  -3.5834570  80.3618088 164.1310883  -4.3141789
  82.1153564 163.4482574  -3.2265689  82.2400131 162.5332642  -3.8056479
  83.0970383 163.8751678  -3.0212610  81.4686508 163.0598602  -1.5990336
  80.0103683 162.1224670  -1.9873575  80.2743378 161.3926392  -2.7527082
  79.6351547 161.6758881  -1.0665560  79.2069016 162.7714386  -2.3357735
  81.3919373 165.6314545  -6.3773232  81.5620270 166.8276062  -6.4695048
  80.4972687 165.0827179  -7.1854534  80.1765137 164.1307220  -7.0809002
  79.6404495 165.8906860  -8.0990849  80.2394638 166.6862640  -8.5421734
  79.1428452 164.9133606  -9.2321548  79.9739609 164.4635773  -9.7753258
  78.7227631 164.0426178  -8.7287426  78.1439209 165.3785706 -10.2973890
  77.2380676 165.7111816  -9.7905369  78.5035629 166.2653198 -10.8193541
  77.8231506 164.2501678 -11.2972059  77.6281509 163.0685120 -10.8896351
  77.6834717 164.5514221 -12.5195923  78.4653473 166.5746918  -7.3947272
  77.5024109 165.8803864  -7.1100640  78.4787979 167.9327698  -7.1934743
  79.3128128 168.3741608  -7.5536075  77.4036407 168.6831970  -6.6094470
  76.9319687 168.2136230  -5.7462382  77.8747482 170.0628662  -6.2113748
  78.4088745 170.5464630  -7.0292730  77.0242386 170.7134094  -6.0075655
  78.8531265 170.0666351  -4.9638162  78.3478394 169.6309509  -4.1018605
  79.7990417 169.6051483  -5.2473288  79.1443710 171.5379486  -4.5034518
  78.6276093 172.5168304  -5.1892271  79.8866425 171.7781372  -3.5096300
  76.3294983 168.9214935  -7.6213937  76.5654449 169.1436310  -8.8156862
  75.0504379 168.8193207  -7.2271461  75.0614471 168.7137604  -6.2227373
  73.7739792 169.1166534  -7.9358759  73.9474106 169.1730042  -9.0105181
  72.7323837 167.9928131  -7.5971293  72.6314926 167.9705200  -6.5120368
  71.8035431 168.3375397  -8.0515718  73.0844345 166.6392822  -8.2116985
  72.9324112 166.3694916  -9.6056814  72.6204681 167.1187439 -10.3182125
  73.1303940 165.0402985 -10.0994873  72.9340973 164.8133698 -11.1369724
  73.5553665 164.0695801  -9.2231684  73.7675858 163.0567780  -9.5323429
  73.5972443 164.3159180  -7.8257031  73.8191452 163.5410309  -7.1068854
  73.3991165 165.6066589  -7.3288231  73.3490677 165.7066193  -6.2546239
  73.2881393 170.5029602  -7.4706802  73.5531387 170.9960022  -6.3571086
  72.4640656 171.1666565  -8.2698498  72.2638702 170.7494202  -9.1675920
  71.9728241 172.6040649  -8.1354790  72.2341003 172.9908905  -7.1504879
  72.6165543 173.5142059  -9.2013578  72.3130798 174.5491486  -9.0436087
  73.6873093 173.5352020  -8.9984913  72.5113983 173.0200348 -10.6422834
  73.2410660 171.9297638 -11.1370459  73.0024796 171.9242096 -12.4575958
  73.3438644 171.1408081 -13.1179972  72.1903763 172.9163208 -12.8165207
  71.8305817 173.0182495 -13.7547407  71.8932571 173.6846771 -11.6974058
  71.3157043 174.5936279 -11.6160145  70.4226379 172.7443390  -8.2028208
  69.8224411 173.5332947  -7.4361038  69.7671890 171.9766693  -9.0455103
  70.2840576 171.3826904  -9.6780777  68.2755203 171.8645630  -9.1346769
  67.8535767 172.8586731  -9.2823696  68.0257874 171.2985229 -10.0320768
  67.6672974 171.2437439  -7.9047976  68.3857880 170.5429993  -7.1733222
  66.3793793 171.5142212  -7.6042676  65.7992783 172.0940094  -8.1937113
  65.5916901 171.0428772  -6.4050646  66.1671677 170.3417664  -5.8006268
  65.3172913 172.2989807  -5.5146151  64.6823273 173.0055237  -6.0491343
  64.8706741 171.9452667  -4.5853562  66.5600815 173.1116943  -5.0936680
  66.9898300 173.4362183  -6.0413508  66.2927399 173.9528046  -4.4540215
  67.6259079 172.2258148  -4.3359289  67.1205673 171.7055969  -3.5222325
  68.0099945 171.5225983  -5.0748782  68.7936325 172.9644165  -3.8647938
  69.6830444 172.6497192  -4.2253771  68.7422256 173.8660736  -2.8916795
  67.7356491 174.2416687  -2.1689382  66.7946091 173.9318542  -2.3652875
  67.8330917 174.9388580  -1.4446912  69.8411865 174.5385895  -2.5952172
  70.6988831 174.4847565  -3.1258507  69.9131088 175.1936340  -1.8298224
  64.2095184 170.3634644  -6.6439886  63.4508858 170.7590485  -7.4794579
  63.8190842 169.3694763  -5.8577695  64.3972702 169.1212769  -5.0677104
  62.5086136 168.7360992  -5.8138590  61.9683228 168.9446259  -6.7372780
  62.6764145 167.1798706  -5.8365636  63.2814102 166.8281708  -5.0008717
  61.3437538 166.4341888  -5.7122240  60.6416779 166.5852966  -6.5322008
  61.5889359 165.3783569  -5.5973148  60.8676262 166.6295471  -4.7513680
  63.2629204 166.7762909  -7.0590739  62.8611794 165.9108582  -7.1650367
  61.7235031 169.1743317  -4.5370488  62.1030617 168.7493286  -3.4442375
  60.5777931 169.8801422  -4.7446098  60.3528862 170.2279358  -5.6657782
  59.5227470 170.0058289  -3.7640321  59.7514153 169.3117828  -2.9552596
  59.6281548 171.3763123  -3.0740604  59.5657120 172.0877991  -3.8974562
  58.7141953 171.6445770  -2.5441430  60.8041000 171.6551819  -2.2583315
  61.6905174 171.4086151  -2.8427737  60.9263725 173.1614532  -1.9408592
  60.0792313 173.4105988  -1.3018194  61.8528595 173.2617340  -1.3754649
  60.9354591 173.8693848  -2.7696254  60.9321480 170.8725891  -0.9340772
  61.0464935 169.8269348  -1.2198032  61.8197136 171.2459106  -0.4232376
  60.0724983 171.0410461  -0.2854406  58.1603889 169.7467194  -4.4768090
  57.8326683 170.5701599  -5.3641934  57.6147232 168.5919952  -4.1584940
  58.0802078 168.1297150  -3.3905566  56.2147369 168.1192627  -4.4227262
  56.1064835 168.0788574  -5.5065842  56.0712090 166.7261505  -3.7940412
  56.0776405 166.7480621  -2.7042804  55.0882607 166.3462830  -4.0726457
  57.0064621 165.6744537  -4.2972064  58.1179199 165.2926788  -3.5584259
  58.7771721 164.3703766  -4.3323660  59.6471291 163.8196716  -4.0063491
  58.2079697 164.2823334  -5.5449338  58.4241180 163.5419617  -6.1970310
  57.1030617 165.1865540  -5.5372910  56.4228058 165.2792511  -6.3709941
  55.2683144 169.1043243  -3.8335083  55.5211143 169.8413086  -2.8298364
  54.0188751 169.1324158  -4.3725362  53.7764969 168.4960480  -5.1184564
  52.9432678 169.9147949  -3.9054413  53.2857742 170.9490509  -3.8723919
  51.6798973 169.8693848  -4.8242373  51.4582596 168.8399200  -5.1056495
  50.8215752 170.2621613  -4.2791548  52.0030594 170.7657776  -6.0228171
  52.0419807 172.0173492  -5.8440042  52.0561104 170.2343445  -7.1741786
  52.5251961 169.5934753  -2.4396231  52.4628754 168.4324646  -2.0058646
  52.1136093 170.6172028  -1.6527773  52.0683060 171.5132294  -2.1166580
  51.5887222 170.3199310  -0.3657034  52.3480759 169.7886505   0.2080737
  51.4105988 171.6197510   0.3937471  50.6144333 172.1890869  -0.0859307
  51.0230789 171.3680420   1.3809551  52.7579842 172.3523712   0.6310836
  53.7240257 171.7561951   1.1732169  52.8147049 173.5301514   0.2667588
  50.2619324 169.5004120  -0.3767522  49.4018326 169.6917114  -1.2489897
  50.2426987 168.5405579   0.5435434  51.0294647 168.4782867   1.1737992
  49.3549538 167.3858948   0.6487486  49.7605972 166.7096252   1.4012284
  47.9036293 167.9029236   1.0441941  47.6299667 168.6668091   0.3163930
  47.0856323 167.1826477   1.0305558  47.9029503 168.5019379   2.4691241
  48.4989014 167.8747406   3.3930583  47.3392868 169.6181030   2.6241460
  49.2289238 166.4861298  -0.6148273  48.3155518 165.6902924  -0.7527172
  50.1291389 166.6692963  -1.5762672  50.8900528 167.3301392  -1.5100256
  50.0925522 165.7464600  -2.6976340  49.0690575 165.7182312  -3.0714779
  50.9061127 166.2573700  -3.9054883  50.6490021 165.6050873  -4.7400651
  50.5907326 167.2539520  -4.2144251  52.3180199 166.0890808  -3.8605614
  52.7453423 166.7501678  -3.3110576  50.5188980 164.2721100  -2.3036010
  51.3979416 164.1306000  -1.4398676  49.9334831 163.2435760  -2.8955400
  49.2114258 163.3726349  -3.5898552  50.1480980 161.8535156  -2.5730152
  50.5018539 161.8405304  -1.5420992  48.8121643 161.0052338  -2.7890840
  48.0557899 161.4408569  -2.1362066  48.4463501 160.9019165  -3.8106544
  48.9763603 159.2767639  -2.1180985  48.4578171 158.6148376  -3.1563027
  51.2194061 161.2627716  -3.4667490  51.1066818 161.3864899  -4.6666684
  52.2896194 160.7096100  -2.8768203  52.2471313 160.7546844  -1.8687216
  53.5219879 160.3079987  -3.5433526  53.3217888 160.1676636  -4.6055813
  54.5942154 161.3538208  -3.2299125  54.8066711 161.2637634  -2.1646190
  55.4979515 161.0016327  -3.7272251  54.3203316 162.8393707  -3.5630167
  53.3943863 163.1849976  -3.1033762  55.0278893 163.5634613  -3.1590662
  54.1103821 163.0168304  -5.0773263  54.3264389 162.1968536  -5.9374018
  53.5474358 164.1322479  -5.5979953  53.4210129 164.2778168  -6.5894251
  53.2299538 164.8906708  -5.0113945  53.8725929 158.9133148  -3.1050496
  53.4753418 158.5143280  -2.0437315  54.7589722 158.1975403  -3.8787811
  54.9658394 158.6140594  -4.7753444  55.4177742 156.9684296  -3.4876559
  55.1934280 156.8505707  -2.4275241  54.8157196 155.6664734  -4.1640968
  53.7619553 155.5843658  -3.8977547  54.8219833 155.8974915  -5.7118773
  55.8168335 156.1665497  -6.0668077  54.4637794 155.0126953  -6.2381163
  54.0936317 156.6922913  -5.8727717  55.5120583 154.3219910  -3.9348271
  55.2658081 153.9220886  -2.9511926  55.2413635 153.4822693  -4.5748992
  56.5862808 154.3937225  -4.1051164  56.9394455 157.0609894  -3.6749701
  57.4592056 157.5470123  -4.6850080  57.6872444 156.6246643  -2.6542263
  57.2816620 156.2236938  -1.8206656  59.1046448 156.9473114  -2.4634993
  59.5374603 157.1239624  -3.4481647  59.2548828 158.2725220  -1.6518279
  59.0672989 158.0163422  -0.6090993  60.7012291 158.9262238  -1.5805696
  61.0082397 159.4092712  -2.5082004  60.7953796 159.7137756  -0.8329124
  61.4204712 158.1348877  -1.3693941  58.2999382 159.4099579  -2.1499829
  58.4468842 159.4789276  -3.2278275  57.2759514 159.1685944  -1.8648504
  58.3677864 160.8917847  -1.5908048  59.1197701 161.4516449  -2.1468418
  57.4243622 161.4040833  -1.7794952  58.4977913 160.9220428  -0.5090088
  59.9385033 155.8470612  -1.8068012  59.5874329 155.2300110  -0.7847998
  61.1022873 155.5147400  -2.3958287  61.7305450 156.0796509  -3.6041873
  61.8693161 157.1591492  -3.5449612  61.0545540 155.8097076  -4.4155240
  63.0822220 155.4043732  -3.7749331  63.8723907 155.9619598  -3.2721117
  63.3054504 155.0809479  -4.7916241  62.9414215 154.1167908  -2.9853125
  63.8679466 153.7161713  -2.5740218  62.5046806 153.3772430  -3.6564684
  61.9371185 154.4642487  -1.8615669  61.2059517 153.6803894  -1.6638978
  62.7271194 154.9712830  -0.6041822  63.0890045 156.1192169  -0.4880374
  62.9594116 154.0204468   0.2681103  62.5669937 153.1105042   0.0729214
  63.7219276 154.0917206   1.4962699  64.0876999 155.1141357   1.5910742
  62.7674103 153.7332153   2.6896055  62.5262337 152.6705475   2.6639998
  63.5030746 153.8070374   4.0720048  63.6543655 154.8569946   4.3226218
  62.8547020 153.4050751   4.8505535  64.4674759 153.3000031   4.0413709
  61.5291672 154.5344086   2.9088042  60.8749657 154.4065857   2.0463753
  61.0127754 154.1095734   3.7695940  61.7963867 155.5760040   3.0870476
  64.8573761 153.0697632   1.3521502  64.5823746 151.8922119   1.0577694
  66.0889587 153.5031433   1.6391554  66.3009338 154.4694977   1.8424649
  67.1755066 152.5583954   1.7630482  67.2267303 151.9817657   0.8394825
  68.4689941 153.3016205   1.8399446  68.3519440 154.0427704   2.6305871
  69.2178955 152.5337677   2.0339258  68.9400711 154.0428314   0.5697737
  68.1169281 154.6061401   0.1302063  70.0056076 155.0748444   0.9161690
  70.9135132 154.7291870   1.4104649  70.2332535 155.5747070  -0.0253215
  69.5424423 155.7430573   1.6421630  69.6785202 153.0359497  -0.3501379
  69.0730133 152.1306000  -0.3927918  69.8912659 153.4555359  -1.3333890
  70.6289673 152.7283325   0.0858968  66.8782272 151.7130432   3.0689752
  66.7053680 152.2739105   4.1827173  66.8198166 150.3707581   2.9393518
  66.9919205 149.5938263   1.7686296  68.0038223 149.7627869   1.4003819
  66.1515808 149.7960968   1.1045388  67.0315857 148.1383209   2.1938987
  68.0160065 147.7180023   2.3996694  66.5128555 147.6274109   1.3827305
  66.2071609 148.1590424   3.4982471  66.5421753 147.3709412   4.1726141
  65.1475449 148.0630188   3.2614017  66.5319748 149.5218353   4.0816674
  65.6022568 149.9093475   4.4982848  67.6181564 149.5601501   5.2257743
  67.2141953 149.3276367   6.3429322  68.8963470 149.7739716   4.9558859
  69.2472839 149.7915649   4.0089779  69.8882141 149.9524078   6.0706201
  69.5247803 149.3485107   6.9020762  71.2538376 149.4903259   5.6502204
  71.6621552 150.1469727   4.8819904  71.9985733 149.5966644   6.4389892
  71.3532333 148.0339355   5.2179976  70.8855972 147.5277863   4.0103168
  71.2096786 146.1850281   4.0246177  71.0852737 145.4653320   3.2290330
  71.6944046 145.9239655   5.2446194  71.8619766 144.9892578   5.5886211
  71.8816147 147.0382385   5.9638314  72.3973083 147.1373901   6.9075713
  69.8459167 151.3182831   6.7776718  70.7545242 151.5208893   7.6123490
  68.9136887 152.2764282   6.5600801  68.2056122 152.1012268   5.8614826
  68.8643036 153.5703735   7.2336140  69.8287506 153.9272308   7.5949969
  68.4305191 154.6360779   6.2174187  67.4989777 154.3366547   5.7371306
  68.2001648 155.9874420   6.9164443  69.1969681 156.2306976   7.2843103
  68.0140228 156.7742767   6.1854544  67.4139252 155.9150238   7.6678982
  69.4509735 154.7828674   5.0789933  69.4991608 153.8793945   4.4711132
  69.2084961 155.5913544   4.3893256  70.4591370 154.9118958   5.4727654
  67.9009857 153.4362946   8.4343023  66.7649460 153.2400513   8.2335920
  68.4015427 153.5568237   9.6854811  69.3979721 153.5004120   9.8405418
  67.5886459 153.3578949  10.8614130  66.6292267 152.9196930  10.5864620
  68.2770233 152.2766266  11.8230419  69.2979126 152.5942688  12.0351706
  67.7684021 152.2546997  12.7868471  68.2679138 150.9154358  11.1281414
  67.2509918 150.5233459  11.1435404  68.5262299 151.0951691  10.0845566
  69.3153839 149.6031189  11.8252640  69.8214111 148.8969269  10.2589350
  70.3910828 149.6320648   9.6904898  70.5090485 148.0852509  10.4965353
  68.9378891 148.4808197   9.7748270  67.2519226 154.6284485  11.6833992
  66.2976685 154.6175079  12.4684715  68.0849228 155.6607208  11.4777498
  68.7500381 155.6263275  10.7184458  67.8887329 156.9779053  12.1012812
  67.6527710 156.8003998  13.1505270  69.1676483 157.8667755  12.0408821
  68.9098053 158.7799835  12.5772314  70.3335114 157.3262177  12.9739141
  70.7225113 156.3416901  12.7141380  71.2661209 157.8895416  13.0055590
  69.9819107 157.1207733  13.9849882  69.6015625 158.1676178  10.6069765
  68.7243195 158.3193207   9.9780636  70.2294159 159.0586243  10.6085548
  70.1270676 157.2705841  10.2794590  66.6784210 157.7731476  11.5591755
  66.1356583 157.4788818  10.4847870  66.1933441 158.6809998  12.3364449
  66.6288681 158.6840668  13.2477131  65.1852493 159.6439667  11.9697237
  64.4742889 159.1054077  11.3431597  64.4094162 159.9779816  13.2569218
  64.0178452 159.0135040  13.5803032  65.0629730 160.4041443  14.0180635
  63.1437378 160.8481293  12.9183006  63.4192123 161.7131653  12.3150263
  62.4822388 160.2851105  12.2598677  62.1812859 161.4216309  14.3334446
  62.3798561 160.0652924  15.5002050  63.4419899 159.9176483  15.6955681
  61.9046211 160.3522797  16.4382286  61.8490181 159.2153778  15.0713129
  65.7980347 160.9268951  11.4195089  66.7305984 161.4225006  12.0823250
  65.4481812 161.3479462  10.2164831  64.7112732 160.8936157   9.6962376
  65.9249954 162.5956268   9.6783247  66.9094086 162.8174591  10.0904274
  66.2029800 162.5084686   8.1134272  66.6039810 161.5404510   7.8130374
  65.2632370 162.5266113   7.5614643  67.1071396 163.5894775   7.5334921
  66.6916275 164.5609894   7.8011236  68.4992447 163.4029083   7.9936962
  68.8475037 162.3822327   7.8355460  69.1329346 164.1824188   7.5707207
  68.5029297 163.4622040   9.0820761  67.0994873 163.4761810   6.0475249
  66.1245880 163.7762146   5.6632648  67.8233032 164.1586456   5.6020756
  67.2649918 162.4295349   5.7920985  64.9442062 163.7519684   9.9978523
  63.7436256 163.6048584   9.6423883  65.3570633 164.9222870  10.4670410
  66.3357773 165.0355530  10.6892729  64.5226212 166.1673584  10.5842638
  63.4747276 165.8703308  10.6267624  64.8094940 166.8867340  11.9128256
  65.8647537 167.1573486  11.9487562  63.9981461 168.2063751  12.0912952
  63.0256042 167.9865723  11.6508932  63.8476105 168.4639587  13.1396723
  64.5496597 168.9993134  11.5861492  64.4570312 165.9735870  13.0706320
  65.1450577 165.1300964  13.1276636  64.5741959 166.4881744  14.0243454
  63.0634117 165.3911133  13.1764641  62.8876724 164.5097961  12.5596285
  62.9556732 165.0600128  14.2093534  62.2434654 166.0774078  12.9648085
  64.7602539 167.0541077   9.3882065  65.8770294 167.0206146   8.8448658
  63.7544785 167.7039642   8.8266249  62.3431931 167.5173187   8.9144325
  62.0243187 167.8947296   9.8860216  62.0764618 166.4605103   8.9038677
  61.7136917 168.1843414   7.6671019  60.7145615 168.5967407   7.8076839
  61.5733490 167.3821564   6.9425983  62.7016907 169.2467957   7.3036408
  62.5815201 170.1672974   7.8749042  62.6034279 169.4992676   6.2478452
  64.0454025 168.6159668   7.6416883  64.3255920 167.9969635   6.7893872
  65.1219788 169.5759735   7.9578953  65.3833847 169.9183350   9.1370831
  65.8934097 170.0109711   6.9728899  65.7350540 169.6657104   6.0370421
  67.0669632 170.8876343   7.2156868  67.1775360 171.6020050   6.3998694
  66.7425690 171.4905548   8.0638361  68.3496857 170.2057648   7.5799360
  69.4346924 170.7010040   7.2351046  68.2341766 168.9709778   8.1057405
  67.2824631 168.6968231   8.3036814  69.3238525 168.1390381   8.6373034
  69.9665909 168.8117523   9.2051277  68.7552567 167.0416107   9.5919542
  68.0879669 167.5326538  10.3002605  68.2311325 166.2764435   9.0193005
  69.9236603 166.4035645  10.3281212  70.5203857 165.8274536   9.6209269
  70.6144943 167.1388245  10.7407265  69.3547592 165.4493866  11.4003229
  68.1409073 165.2525024  11.5992651  70.2444077 164.7507324  12.1422253
  70.1510086 163.9676208  12.7731924  71.2032852 164.7967987  11.8283329
  70.0701981 167.5979309   7.4325552  69.4807358 166.9899139   6.5359869
  71.3986130 167.5897522   7.5332694  71.7803879 168.1087036   8.3111124
  72.3613358 167.0349274   6.5326920  71.7966385 167.1593933   5.6087155
  73.7382660 167.7969971   6.4636445  74.1497574 167.6416626   7.4609656
  74.7504807 167.3333282   5.4025717  74.1844101 167.2546692   4.4744086
  75.5797729 168.0381622   5.3426719  75.1748962 166.3543091   5.6250310
  73.5583725 169.2112274   6.3074751  74.3793488 169.7059021   6.3612423
  72.5003662 165.5445251   6.8377953  72.4474182 165.1621246   8.0075693
  72.7661743 164.6077118   5.8827100  72.5585861 164.9010773   4.9388123
  72.8768692 163.1723175   6.0224299  73.0624008 163.0633545   7.0909839
  71.4537277 162.6307526   5.7186999  70.6915970 163.0662537   6.3649192
  71.1948853 162.8939056   4.6931005  71.3709717 161.0840607   5.8034115
  72.1269302 160.6614532   5.1415792  71.7616882 160.5138550   7.1707697
  71.1570511 160.9989014   7.9370885  71.5181885 159.4548645   7.2564988
  72.8244171 160.6332703   7.3816009  69.9768219 160.5814209   5.3625364
  69.6820831 160.9966583   4.3987880  69.9733047 159.5020142   5.2110019
  69.1969604 160.9306183   6.0392756  74.0130081 162.5787659   5.0452709
  73.7607269 162.4560089   3.8353984  75.1572113 162.3001709   5.5213132
  75.5782928 162.6301575   6.8884830  74.9878998 162.1704559   7.6810756
  75.5525284 163.7165527   6.9732809  77.0851669 162.1669617   7.0025058
  77.1836700 161.2213440   7.5356212  77.6979294 162.9126129   7.5091081
  77.5632629 162.0283813   5.5953226  78.3090057 161.2561493   5.4065175
  77.9265137 162.9454498   5.1314955  76.2584000 161.6594086   4.8108053
  76.3537674 161.9872589   3.7756619  75.9766235 160.1721802   4.8025417
  75.4964981 159.6352081   5.8023415  76.2141037 159.4623871   3.7236304
  76.5590973 159.8914185   2.8768675  76.1384964 157.9803009   3.6501760
  76.1586685 157.5321198   4.6435699  74.6849060 157.6077423   3.1505151
  74.7659836 158.0799866   2.1714761  74.5875626 156.5255585   3.0639849
  73.3953171 158.0950165   3.8566756  73.4691315 159.1758423   3.9770002
  72.1525269 157.7855530   2.9848447  72.1829453 156.7471924   2.6547375
  71.3139267 157.9635468   3.6580174  72.1001358 158.4476929   2.1205943
  73.2233276 157.2588043   5.1346793  74.0191956 157.4971924   5.8402686
  72.2401657 157.4375763   5.5700378  73.2969513 156.1966248   4.9012909
  77.1857452 157.3775940   2.7430921  77.6801529 157.9988403   1.7778152
  77.5565109 156.0888519   3.0244014  77.2892838 155.7951660   3.9530804
  78.3231659 155.2143860   2.1336656  78.3449097 155.6665955   1.1421337
  79.7528534 155.0623779   2.7382565  80.2560272 156.0272675   2.6759801
  79.5975342 154.7427216   3.7686968  80.6814423 154.0409851   2.0620418
  80.2048340 153.0635071   2.1361735  80.7764359 154.2764893   1.0020314
  82.1146164 154.0267639   2.5301476  82.5786514 155.0083466   3.1211898
  82.8629837 152.9688110   2.2000403  83.8555222 152.9957886   2.3850517
  82.4384155 152.1298065   1.8313335  77.5033340 153.9231262   1.9293081
  77.1469879 153.2386169   2.8974183  77.2243195 153.5253448   0.6557414
  77.5406799 154.1203156  -0.0965994  76.3419495 152.4624023   0.3478722
  75.9889908 151.9207001   1.2254192  75.0636902 152.9290009  -0.4177445
  75.3122940 153.1619720  -1.4531299  74.4282684 152.0458832  -0.4843578
  74.2464828 154.1494446   0.0866523  74.9125671 155.0120087   0.0660866
  73.0827942 154.5477142  -0.8630027  72.3632812 153.7618561  -1.0928802
  72.5385895 155.4053955  -0.4676448  73.6199265 154.7878113  -1.7805750
  73.6493149 153.9373322   1.4766725  74.5173035 153.6735077   2.0809033
  73.2929764 154.8776550   1.8972812  73.0594635 153.0223694   1.5317495
  77.1932068 151.4921265  -0.4882889  77.6349335 151.8133240  -1.6070199
  77.4413071 150.2819061   0.0831162  77.2305069 150.2056427   1.0679287
  78.2481384 149.1865845  -0.4587823  78.7195816 149.5000305  -1.3902311
  79.3417587 148.8231964   0.6101673  79.9554291 147.9689789   0.3241461
  80.0484314 149.6300507   0.8043126  78.7764587 148.4533539   2.0562968
  78.4256210 149.4600677   2.9659858  78.6340637 150.4805298   2.6802833
  77.6778641 149.1029205   4.1280513  77.3006744 149.9146729   4.7323513
  77.5344620 147.7744293   4.4746408  77.0648499 147.4788818   5.4012008
  77.9281845 146.7721405   3.5738430  77.5510101 145.7939911   3.8333349
  78.4476089 147.1406403   2.3491967  78.6120453 146.3340759   1.6500453
  77.3668823 147.8854828  -0.8333229  77.8652267 147.0462952  -1.5790806
  76.1512527 147.7614441  -0.2964171  75.8945770 148.3624268   0.4736672
  75.2186508 146.6582336  -0.5926543  75.7821198 145.7338409  -0.4657149
  74.1341171 146.4925690   0.5026737  73.7319870 147.4717102   0.7627665
  73.2922592 145.9284210   0.1012709  74.6842651 145.7339630   1.6919456
  74.8912048 144.3224182   1.5776937  75.0403366 143.9066620   2.8613749
  75.3082047 142.8930359   3.1205761  75.0165939 144.9858551   3.6949084
  75.1241531 145.0444641   4.6974535  74.5987549 146.0885010   2.9836917
  74.1879196 147.0085754   3.3723795  74.6453171 146.7588196  -2.0587788
  74.3898163 147.9057922  -2.4602895  74.5428467 145.6066284  -2.8461895
  74.5554962 144.2182922  -2.3785655  74.0911026 144.0463257  -1.4075509
  75.5913773 143.8808441  -2.3442750  73.8664474 143.3392334  -3.4679575
  72.8133163 143.2243958  -3.2114050  74.4846115 142.4417267  -3.4465921
  74.0041504 144.2278290  -4.7343225  73.1972580 144.1422119  -5.4621243
  74.8891830 143.9462280  -5.3048697  74.1761169 145.7023926  -4.2767553
  74.9513474 146.1091309  -4.9261289  72.9193878 146.5245361  -4.4951878
  72.8507156 147.4282074  -5.3590360  71.8291245 146.2631226  -3.7754080
  71.8914948 145.4883423  -3.1304779  70.4654770 146.8697510  -3.9103386
  70.2920532 146.8017731  -4.9843044  69.3682556 146.0372162  -3.0979233
  68.3852386 146.3295135  -3.4671526  69.4412079 144.9972534  -3.4161561
  69.2879944 146.0707855  -1.5742713  69.5003738 147.1141357  -1.3410438
  68.3147964 145.7471771  -1.2051266  70.3775940 145.2226562  -0.8574237
  71.4605865 144.9734344  -1.3266057  70.0397720 144.7383575   0.3289654
  70.6857224 144.1244049   0.8042818  69.0938416 144.8942719   0.6467858
  70.5762024 148.3290100  -3.5362132  69.9299774 149.1692200  -4.1467748
  71.3588943 148.7084503  -2.5043368  71.9243469 148.0618286  -1.9730742
  71.5007858 150.1251984  -2.1353872  70.5298157 150.6010590  -1.9980017
  72.2694550 150.2886047  -0.8344926  73.2632141 149.8422699  -0.8708465
  72.3312149 151.3703461  -0.7156290  71.5135880 149.8144073   0.4245901
  70.4708786 150.1314697   0.4428649  71.4902344 148.7250366   0.3962130
  72.2203751 150.2912598   1.6941255  73.3967667 149.9452209   1.8692023
  71.5859756 150.9954529   2.5012567  72.2024994 150.9533386  -3.2052760
  71.8259811 152.0630951  -3.4472837  73.1892776 150.3845062  -3.8808992
  73.5671844 149.5082245  -3.5501373  73.8872604 150.9678955  -5.0469131
  74.3031769 151.9365082  -4.7695971  75.0376053 150.0384369  -5.5494399
  74.7555161 148.9861908  -5.5855112  75.6160507 150.5048370  -6.8880796
  75.7890244 151.5807495  -6.8636022  76.5608215 150.0177765  -7.1295466
  74.9618988 150.2733002  -7.7286592  76.1566620 150.2043457  -4.3881717
  75.8718414 149.8808594  -3.3870084  77.0425644 149.6238556  -4.6456447
  76.4573593 151.2493439  -4.3129783  72.8481369 151.1663361  -6.2210789
  72.6762009 152.2696686  -6.6929131  72.1468658 150.1023407  -6.6329284
  72.3167419 149.2312927  -6.1507154  71.1686172 150.0572052  -7.7113562
  71.6691971 150.3849182  -8.6224689  70.6059875 148.6623230  -7.9376307
  71.4553375 147.9861145  -8.0348663  70.1510468 148.2810364  -7.0234404
  69.8927994 148.6220703  -9.1764250  69.2698135 147.8925629  -9.2127104
  70.0893478 151.1120300  -7.5320482  69.8822250 151.9831238  -8.3713655
  69.4362030 151.1402740  -6.3708291  69.6386871 150.4479828  -5.6638451
  68.3591537 152.0811005  -6.1256857  67.5400620 151.9301453  -6.8288245
  67.8206253 151.8306580  -4.7396235  67.6657639 150.7518616  -4.7215662
  68.4900208 152.1514893  -3.9414530  66.4050980 152.4039459  -4.4429049
  65.7086945 151.9680023  -5.1592026  66.1441498 152.0305634  -3.4526544
  66.2486420 154.2002258  -4.4601536  67.1884689 154.7003479  -3.0774381
  68.2311630 154.3859558  -3.1228049  67.1110840 155.7821960  -2.9692111
  66.7123871 154.1925201  -2.2386489  68.8165741 153.5623169  -6.2912078
  68.2760925 154.3203888  -7.0929213  69.8807755 154.0288391  -5.6186585
  70.4270554 153.3451385  -5.1144428  70.3558960 155.3951416  -5.8072762
  69.4585419 155.9940948  -5.6519871  71.4429245 155.8075104  -4.8273268
  71.7670441 156.8328705  -5.0053711  70.9631500 155.7589874  -3.3972771
  70.7909851 154.7079010  -3.1656065  71.6283112 156.3017883  -2.7256923
  69.9806519 156.2293701  -3.3582807  72.6913605 154.9282837  -5.0099835
  73.1069870 155.0747681  -6.0069227  73.4455185 155.2150726  -4.2771101
  72.5212173 153.8609772  -4.8685637  70.7938766 155.7362823  -7.2250609
  70.5799713 156.8904877  -7.6794729  71.3934555 154.7823486  -7.9302883
  71.4952850 153.8686371  -7.5121212  71.8930969 154.9609833  -9.3582754
  72.4596481 155.8910828  -9.4034414  72.7486725 153.7562408  -9.8335762
  73.5318222 153.6421661  -9.0840712  72.1046829 152.8852692  -9.9552517
  73.4889679 154.0514679 -11.0966263  72.9379883 154.5601654 -11.8876772
  74.2771835 154.7650757 -10.8566484  74.1839600 152.8083191 -11.6989040
  73.4267426 152.0301666 -11.7949085  74.4892807 153.0534210 -12.7161551
  75.3924484 152.4219055 -10.8921900  75.9403763 153.1709900 -10.4937706
  75.9787369 151.2379303 -10.8140039  75.5641403 150.2145233 -11.4919167
  74.8003159 150.4471436 -12.1104307  76.2198410 149.4525146 -11.5894203
  77.0716476 151.1243744 -10.1260262  77.4982605 151.9924316  -9.8352022
  77.4959641 150.2078400 -10.1205893  70.6402740 155.2624054 -10.2351952
  70.5663605 156.3105011 -10.8694229  69.6245117 154.4521332 -10.0891018
  69.8007126 153.6946259  -9.4447117  68.3772736 154.4061584 -10.8374186
  68.5019379 154.4405212 -11.9197216  67.6292725 153.0099030 -10.4885235
  67.4096298 153.0451660  -9.4214649  66.6532516 152.9588623 -10.9710884
  68.3870544 151.7188110 -10.8956537  69.3828888 151.6729889 -11.6106672
  67.9699249 150.5206299 -10.4540625  68.5656967 149.7280426 -10.6463318
  67.1402283 150.4102325  -9.8888092  67.4188690 155.5549469 -10.5368576
  66.6036987 155.8985596 -11.4307690  67.5458603 156.1778259  -9.3552799
  68.1076660 155.6985931  -8.6662140  66.8792267 157.4545593  -8.9677668
  65.8517456 157.4886780  -9.3300123  66.7015228 157.4445801  -7.4123354
  66.1057434 156.5685120  -7.1561022  67.6889267 157.3332214  -6.9642997
  66.1442566 158.6383057  -6.6669564  66.7823563 159.4857635  -6.9174523
  64.7347946 159.0001068  -7.1878285  64.0907288 158.1332245  -7.0401096
  64.2554703 159.8069763  -6.6334686  64.8825302 159.2949982  -8.2267265
  66.1950226 158.3592987  -5.1879249  67.2222290 158.3365479  -4.8240170
  65.7582474 159.1908569  -4.6349030  65.5806732 157.4949341  -4.9358048
  67.6598511 158.6782990  -9.5175447  66.9854736 159.6312408  -9.9160881
  69.0205994 158.7151794  -9.5015583  69.4535980 157.8801270  -9.1337252
  69.8591995 159.9272156  -9.7092619  69.4497833 160.7028809  -9.0620909
  71.3199539 159.6969147  -9.2399521  71.3498688 158.9288177  -8.4671383
  72.3559723 159.2836151 -10.3647585  72.4053268 160.1575775 -11.0142641
  73.3357010 159.1428223  -9.9082308  71.9677353 158.4353180 -10.9284754
  72.0256348 160.8713074  -8.5033617  73.0757446 160.6139832  -8.3649702
  71.9594193 161.8026886  -9.0657072  71.5153656 161.0376740  -7.0873790
  71.9374161 160.2987366  -6.4062490  71.9373016 161.9945984  -6.7802124
  70.4320221 160.9214935  -7.0562115  69.7932053 160.4657898 -11.1468029
  70.0297241 161.6566620 -11.3279152  69.4208755 159.6840668 -12.1324091
  69.4811172 158.6921234 -11.9520855  69.1295090 160.1535492 -13.5052700
  69.9559708 160.8075867 -13.7832603  69.1235733 158.9474335 -14.4769583
  68.6843567 158.1149750 -13.9272156  68.4306641 159.1450500 -15.2948370
  70.4560928 158.5917053 -15.1059217  70.2702713 157.7042999 -15.7109623
  70.6643600 159.3892975 -15.8190670  71.6169815 158.5004578 -14.1389265
  72.4582825 159.3806152 -14.0015411  71.7667618 157.4560394 -13.4110985
  72.5583954 157.4594116 -12.7838802  71.1533279 156.6790009 -13.6111183
  67.7656021 160.9362488 -13.5758896  67.4533386 161.6265869 -14.5594664
  66.9581146 160.7921295 -12.5127354  67.3887634 160.2751160 -11.7595062
  65.6497345 161.4262695 -12.2436571  65.5060425 162.1537018 -13.0425959
  64.4088287 160.5616455 -12.5399885  63.5577965 161.2247620 -12.3846502
  64.4344330 160.2634735 -13.5880957  64.3809357 159.2513428 -11.6830931
  65.2424774 158.6536560 -11.9807739  64.4636459 159.5922089 -10.6510706
  63.0318871 158.5573730 -11.8970966  62.8227081 157.8979950 -11.0547342
  62.1862068 159.2450409 -11.9040308  62.9317284 157.7207336 -13.2076302
  62.6717987 158.3049622 -14.0903664  63.8678398 157.1673431 -13.2821417
  61.7816887 156.7076874 -13.0982714  60.8946114 157.1884003 -13.1440544
  61.8361588 156.0643311 -13.8749475  61.8275337 156.1144104 -12.2821674
  65.5678635 162.3339539 -10.9962673  66.4097900 163.2446289 -10.9039040
  64.5775528 162.1438141 -10.1658669  64.0405350 161.3094635 -10.3544827
  64.1602859 162.9862366  -9.0330868  64.1019745 163.9705048  -9.4977703
  62.8270569 162.5310669  -8.4516630  62.4426155 161.7445221  -9.1010160
  63.0138092 162.0803528  -7.4769435  61.7184334 163.6044617  -8.4037123
  62.0022964 164.7485504  -8.3093653  60.5390549 163.3044586  -8.5624161
  65.1543427 163.1486359  -7.8499675  64.9385452 164.0565643  -7.0063024
  66.2021713 162.3132782  -7.6995010  66.3597260 161.6654510  -8.4581861
  67.1325073 162.3355103  -6.5599165  67.8154221 161.4904633  -6.6472130
  68.0866928 163.5461121  -6.4674945  67.5076447 164.4660187  -6.3863187
  68.6612778 163.4621429  -5.5450487  68.9457321 163.4998627  -7.7892380
  69.4970551 162.5618896  -7.8550487  68.3633270 163.4966278  -8.7105951
  70.0157089 164.5317688  -8.0194645  70.7115707 164.5422211  -7.1805553
  70.6132736 164.1660919  -8.8545094  69.4482269 165.8766785  -8.3738918
  69.4738312 166.0656738  -9.3657207  69.0027695 166.7246552  -7.5258217
  69.1595917 166.6962738  -6.2065353  69.6256714 165.9684906  -5.6838455
  68.7220688 167.4271088  -5.6638198  68.3089066 167.7837524  -7.9247127
  68.0403900 167.8678436  -8.8947258  67.9699249 168.4382477  -7.2341900
  66.5145950 162.1717834  -5.0977883  67.2560730 161.8627319  -4.1556635
  65.2163696 162.4194641  -4.8340554  64.7706757 162.8643188  -5.6237183
  64.5198822 162.1940155  -3.5720828  65.1815491 162.6010284  -2.8074703
  63.1996651 162.9778595  -3.4596658  62.5472412 162.6145172  -2.6656663
  63.3935471 164.4610596  -3.2809403  63.7497253 164.8952026  -4.2151580
  62.3593674 164.8049622  -3.2988932  63.9072914 164.6602020  -2.3404567
  62.4926605 162.8055115  -4.6772637  61.8466530 162.0954132  -4.6722455
  64.2962646 160.7100525  -3.2113130  63.5477028 159.9617920  -3.8161318
  64.8658600 160.2598877  -2.0831101  65.4733810 160.9335022  -1.6389760
  64.4258118 159.0639343  -1.3496224  63.6532021 158.4956512  -1.8675332
  65.6952286 158.1610718  -1.2986991  65.3881226 157.1635284  -0.9845343
  66.1494217 158.0903625  -2.2870359  66.6429443 158.5190430  -0.1960581
  67.7826691 159.3741760  -0.4766156  67.7718582 159.7759705  -1.4790355
  68.7756348 159.5775452   0.4502704  69.6802597 160.0709686   0.1268429
  68.6828995 158.9931488   1.7649996  69.4933624 159.0672455   2.4749737
  67.5428925 158.1898956   2.0653293  67.5736084 157.5848541   2.9594071
  66.5939331 157.9075470   1.0821888  65.8471069 157.1807404   1.3657306
  63.7361679 159.5253448  -0.0750279  63.4720535 160.7015228   0.1350115
  63.3096504 158.5463257   0.7468400  63.5109291 157.6109619   0.4233069
  62.8085480 158.8319550   2.0720651  63.0006485 159.8707123   2.3407042
  61.2739105 158.6320343   2.0822752  61.1140251 157.7165375   1.5127058
  60.7822800 158.4357147   3.0350902  60.8167877 159.4720154   1.5592411
  63.5890121 158.0798340   3.2029762  64.0808563 156.9963989   3.0982857
  63.4469757 158.7384033   4.3783545  63.0227203 159.6468353   4.5001540
  63.8475800 158.1326752   5.6839299  64.3178940 157.1914520   5.3992944
  64.9442215 159.0221252   6.3763275  64.5264740 160.0243073   6.4722509
  65.2501297 158.3371735   7.7820044  65.1450882 157.2522583   7.7775846
  66.2584915 158.5726318   8.1223907  64.5594025 158.7254791   8.5304832
  66.2116394 159.0449066   5.5062242  66.0592651 159.7951660   4.7303419
  67.0835953 159.4625244   6.0095963  66.4426346 158.0546112   5.1137338
  62.6033478 158.0544434   6.5521898  61.9931717 159.0833893   6.8209763
  62.1937943 156.8428497   7.0195804  62.7194138 156.0503693   6.6793103
  61.0596237 156.6992493   7.9730020  60.2740479 157.4344482   7.7985072
  60.4352264 155.2942352   7.8425465  61.1537399 154.5453186   8.1756372
  59.6169014 155.2604065   8.5617847  59.9426384 154.8277283   6.4264898
  60.6595612 154.9824829   5.6201582  59.5049248 153.3329010   6.4556928
  58.7607880 153.0234833   7.1895938  59.1740990 153.0175476   5.4661446
  60.3500671 152.6694489   6.6391759  58.7525482 155.6420593   5.9771285
  59.0590973 156.5713959   5.4970703  58.1723442 155.0996704   5.2306137
  58.0402679 155.7221069   6.7983198  61.4197273 156.9577332   9.4592390
  62.5380363 156.6327820   9.8688498  60.5102577 157.4823914  10.2432528
  59.5795059 157.7141266   9.9268723  60.6646461 157.6152954  11.6761131
  61.7195358 157.7049408  11.9354763  59.9291878 158.8198853  12.2250261
  58.8447342 158.7303467  12.1614237  60.2711983 158.8406219  13.2597713
  60.2707443 159.7340240  11.7394209  60.2166862 156.2953033  12.2913637
  59.0379295 156.0476227  12.6012421  61.1904793 155.3824921  12.3213024
  62.1561928 155.6232452  12.1494474  60.9229469 154.0343933  12.9006042
  60.0960655 153.6615601  12.2961578  62.0987587 153.1126251  12.6579981
  62.9654808 153.5555420  13.1486244  61.9228058 152.1891174  13.2096195
  62.3297768 152.7298126  11.2124834  61.3873405 151.8793640  10.4892635
  60.5336113 151.5265961  11.0488234  61.4546700 151.5792999   9.1124964
  60.6961632 151.0489349   8.5559101  62.5445099 152.0913239   8.4308844
  62.7193336 151.8439789   7.0692925  62.5452309 150.9226837   6.8631730
  63.5167198 152.8388214   9.0750999  64.3680725 153.1809082   8.5053844
  63.4261818 153.1903381  10.4733362  64.1681061 153.8190002  10.9431410
  60.4948349 154.0494690  14.3742704  61.3749390 154.1443176  15.2627831
  59.1945190 154.0194244  14.7039824  58.5232391 153.9592896  13.9517422
  58.5867767 154.1004333  16.0572090  59.1168671 154.8658295  16.6240330
  57.1113739 154.3750458  15.9314241  56.5679398 154.2215271  16.8637390
  56.9497223 155.3876343  15.5617800  56.6224174 153.4512329  14.9051199
  55.6956062 153.2138977  14.9844131  58.8145180 152.7653809  16.8267803
  58.9226303 152.7615814  18.0531006  59.0600739 151.6472321  16.1090107
  58.9872246 151.8215027  15.1168289  59.6608658 150.3570099  16.5544510
  60.2936058 150.5286102  17.4252548  58.4938126 149.5277100  17.0893917
  58.0710526 150.0244751  17.9626560  57.7400703 149.3775635  16.3164558
  58.9497032 148.1414337  17.3781319  59.7874985 147.4566193  16.7251835
  58.5118599 147.5248413  18.4142952  58.8558311 146.5949860  18.6070213
  57.7070618 147.9453430  18.8565388  60.6018028 149.8198242  15.4299364
  60.1058044 149.2423096  14.4579802  61.8977852 149.9711456  15.5922451
  62.2150421 150.1715240  16.5299549  62.8459435 149.6467896  14.5482473
  62.4583206 149.8694153  13.5541191  64.0506287 150.6143951  14.7531424
  63.6963654 151.6387329  14.8686094  64.8238449 150.2212219  16.0578251
  65.1315002 149.1766510  16.0095711  65.7378845 150.8033142  16.1753006
  64.1974182 150.3551788  16.9397202  65.0615005 150.5642090  13.5888567
  64.6517563 150.9840393  12.6701870  65.8340302 151.2657471  13.9037189
  65.5090408 149.5934143  13.3758965  63.1543083 148.1320953  14.4479675
  63.7850151 147.7256622  13.5214291  62.6921043 147.3322754  15.4445601
  62.0499039 147.7696686  16.0898399  62.8011780 145.8862000  15.4951200
  63.7278099 145.6378326  14.9776525  62.9771423 145.4883423  16.9611244
  63.7473183 146.1460419  17.3640614  62.0873756 145.6416321  17.5717945
  63.4644432 144.0388641  17.1283417  62.7116699 143.4694519  16.5831795
  64.5051804 143.9620667  16.8135853  63.5009270 143.6230316  18.6268330
  64.1856003 144.3088074  19.1258583  62.4758759 143.7918091  18.9568062
  63.8251572 142.1604462  18.8480587  64.7668533 141.9367981  19.1366539
  63.0176125 141.1219482  18.6937199  61.7424812 141.2299347  18.4177933
  61.2528343 142.1132355  18.4288311  61.1448021 140.4375763  18.2305794
  63.4571228 139.8986816  19.0134296  64.3958054 139.7344055  19.3480453
  62.8290825 139.1082306  18.9843903  61.6877136 145.1544037  14.6916943
  61.9332085 144.2041931  13.9614706  60.4322624 145.6161804  14.7418137
  60.2268600 146.3094635  15.4469786  59.3864174 145.3201752  13.7805166
  59.5613708 144.3017731  13.4335909  58.0034256 145.3092957  14.4626179
  57.9753571 146.2569885  15.0004053  57.2038841 145.3014679  13.7218275
  57.7927628 144.1920319  15.4861708  58.6815529 144.1882324  16.1171551
  56.9102097 144.2478943  16.1234131  57.7221146 142.8183594  14.7800817
  56.8887062 142.5552979  13.8426075  58.5648422 141.9192352  15.0830669
  59.3589287 146.1285858  12.4849215  58.7401390 145.7620697  11.5136051
  60.1175995 147.2513428  12.4813347  60.6050987 147.4014435  13.3530655
  60.1913452 148.3378601  11.5032949  60.8001518 149.1475067  11.9056787
  60.7964325 147.8242950  10.2053137  60.0926170 147.2420044   9.6106081
  61.0605392 148.6356201   9.5270081  62.0298157 146.9383392  10.3703508
  62.6064987 147.2732391  11.2325439  61.6842461 145.9219818  10.5593481
  62.9230804 147.0069885   9.0925369  63.6242714 146.1726227   9.1086035
  62.3176613 146.8998260   8.1924868  63.6141205 148.3021088   9.0535326
  63.1666107 149.0064240   9.6225414  64.7174454 148.5399780   8.3019629
  65.3533936 147.6640167   7.6086164  65.1185989 146.6949463   7.7694931
  66.0602570 147.9060059   6.9289947  65.2840347 149.7287598   8.2952414
  64.9503632 150.5350647   8.8038244  66.1744614 149.7152252   7.8187304
  58.8329735 149.0519714  11.2392387  58.3617859 149.2641907  10.0977335
  58.1027794 149.2632599  12.2574797  58.4796257 148.9804382  13.1508474
  56.9434280 150.1405945  12.3123960  56.3077774 149.8137360  11.4894714
  56.0783653 149.9855652  13.6366491  56.6320915 150.3132629  14.5164814
  55.2431030 150.6490479  13.4125109  55.6073608 148.5612488  13.9346075
  55.3172989 148.0632324  13.0094337  56.4035454 147.9571381  14.3696136
  54.4744987 148.5474091  14.9437695  54.7395210 148.7084656  16.1827087
  53.3128128 148.3174133  14.4629402  57.3789597 151.5897064  12.1112976
  58.3441772 152.0665283  12.7533026  56.5831490 152.3711243  11.2888145
  55.7909012 151.9597168  10.8164015  56.6579857 153.8699036  11.2927656
  56.9160614 154.3112946  12.2554026  57.8078918 154.2464142  10.3633661
  57.6555595 153.8321075   9.3667469  57.8974419 155.3295746  10.2806454
  58.7567825 153.9179688  10.7874250  55.3686676 154.5719910  10.8113794
  54.6294365 153.9994659  10.0299025  55.0447578 155.7281799  11.3396139
  55.6303978 156.1557312  12.0426960  53.8265572 156.4274750  10.9176626
  53.2504120 155.8111877  10.2274857  52.9874611 156.7605438  12.1727982
  53.6529884 157.3141632  12.8351316  52.0402946 157.2734985  12.0058880
  52.6011238 155.5166626  12.9733868  51.6259537 154.5377197  12.5493259
  51.6515884 153.5678253  13.4924126  51.0771370 152.6577148  13.4022903
  52.3751221 153.9273071  14.5131178  52.5350189 153.3217010  15.3054352
  52.9598465 155.1353149  14.2188501  53.5435829 155.7435608  14.8938990
  54.0742607 157.6838531  10.0390244  53.2201843 158.0760651   9.2108736
  55.2421341 158.3505859  10.1971102  55.7757187 158.1786194  11.0372458
  55.7060852 159.4893494   9.3941298  55.1419792 159.5164185   8.4618464
  55.4930992 160.7583160  10.2798986  56.1891899 160.6765137  11.1146851
  55.7493820 161.7094421   9.8132277  54.0776787 161.0494080  10.7901917
  53.3210754 162.0925293  10.1286068  53.6451874 162.5882263   9.2254887
  52.0621452 162.4021149  10.6839991  51.4933434 163.1986084  10.2274361
  51.6215973 161.8244781  11.8940296  50.6528206 162.0136414  12.3323021
  52.4033623 160.7915192  12.5208826  52.0267868 160.3040314  13.4079885
  53.6459274 160.4519653  11.9857426  54.3215446 159.7835999  12.4988070
  57.1822128 159.4373169   8.9894695  57.8895912 158.4649353   9.2563496
  57.7047768 160.4956512   8.3602743  57.0646439 161.2620697   8.2088842
  59.1029892 160.5285645   8.0054035  59.7113838 160.5686646   8.9089251
  59.4273758 159.6725464   7.4136968  59.4694252 161.7963104   7.2497153
  58.7223129 162.7731018   7.2599916  60.6257172 161.7439117   6.7272887
  61.0148849 160.8120117   6.7124100  61.3551559 162.8480835   6.0265684
  60.5200844 163.5305176   5.8683581  62.3700485 163.5218964   6.9460382
  62.9335175 162.7361908   7.4492822  63.3689079 164.4563599   6.2348275
  62.8917542 165.3223114   5.7759557  64.1404572 164.7476807   6.9475288
  63.8366318 163.9446259   5.3937182  61.6599770 164.3280487   7.8479333
  61.9324265 164.0962067   8.7387886  61.8624001 162.3821411   4.6009727
  62.5588455 161.3915405   4.4430594  61.5461464 163.1393738   3.5387902
  60.9426498 163.9243469   3.7380524  62.1560326 162.9233551   2.1702337
  62.2633018 161.8505096   2.0102055  61.3525734 163.5045929   0.9681853
  61.8604965 163.3390503   0.0180732  59.9580688 162.9058685   0.8136825
  59.3270187 163.4221802   1.5370811  59.5628738 163.0243988  -0.1952140
  59.9715996 161.8352814   1.0180533  61.2675552 164.8952484   1.1619009
  62.1553612 165.2598419   1.1836729  63.5667725 163.4972687   2.1685731
  63.7939034 164.6629333   2.3974438  64.5921173 162.7053986   1.8059338
  64.3808899 161.7202606   1.7352620  65.9640427 163.0655365   1.5944741
  66.1167068 164.0077209   2.1208346  66.8820572 162.0036316   2.2208269
  66.7782440 161.0941162   1.6291295  67.9382553 162.2438202   2.0989397
  66.5911484 161.8517609   3.2602530  66.2288742 163.3698273   0.0803055
  66.0749435 162.4329224  -0.7100687  66.6802902 164.5948334  -0.2979848
  66.8652649 165.3543701   0.3415390  67.1603088 164.8518219  -1.6959386
  66.7241745 164.0648651  -2.3112354  66.6445465 166.2459564  -2.2256150
  65.5751038 166.1697845  -2.4220510  66.7812729 166.9980469  -1.4486002
  67.3574448 166.7696686  -3.5343196  68.4151382 166.8690796  -3.2903955
  67.2229080 166.0358887  -4.3290420  66.8274307 168.0790558  -4.1038141
  65.7545166 168.5668030  -3.6498232  67.4756775 168.4889374  -5.0833235
  68.7045670 164.7124176  -1.6629913  69.3639755 165.1741943  -0.7628832
  69.2158813 163.9435272  -2.6319580  68.5396805 163.3871918  -3.1352930
  70.6863403 163.7252960  -2.7890575  71.1676178 163.7721100  -1.8121810
  71.0965652 162.3815155  -3.3960788  70.5449295 162.3500366  -4.3356590
  72.6535034 162.3688507  -3.6862190  73.2132950 162.4636841  -2.7557635
  72.9527206 161.4421539  -4.1758990  72.8967209 163.1474762  -4.4091940
  70.7341232 161.2018280  -2.5446665  71.3683853 161.1438599  -1.6601063
  69.6999588 161.2648315  -2.2060714  70.8603973 159.7956085  -3.2098315
  71.8743896 159.6106262  -3.5643809  70.6635284 159.0151215  -2.4748609
  70.1220245 159.7729340  -4.0113320  71.2975540 164.9701385  -3.4622970
  71.0914078 165.1312714  -4.7100115  72.1060944 165.7870483  -2.7122383
  72.2376709 165.7214661  -1.7129931  72.8238983 166.9599457  -3.2751791
  72.2677002 167.2372437  -4.1706376  72.8056946 168.2714996  -2.4000347
  73.0518799 169.1233215  -3.0339921  71.7784729 168.4177246  -2.0660496
  73.6669922 168.2604675  -1.1449746  74.8807220 168.9972534  -1.0321504
  75.1893234 169.6573639  -1.8292735  75.6607742 168.9463196   0.1548003
  76.5498886 169.5393066   0.3105263  75.1975861 168.1458588   1.1944920
  75.9149170 168.0706329   2.3244586  76.3948135 168.8783722   2.5215759
  73.9744568 167.4675751   1.0974368  73.6393204 166.8315582   1.9033939
  73.1602402 167.5473938  -0.0340019  72.1969147 167.0598907  -0.0616946
  74.2269669 166.7022552  -3.8401127  74.7395859 167.5782776  -4.5693560
  74.9057159 165.5890503  -3.4446623  74.4854736 165.1249695  -2.6521194
  76.2832260 165.1992493  -3.8787935  76.3327942 165.5942383  -4.8935037
  77.3736572 165.9551544  -3.0511870  77.3519516 165.8320160  -1.9683808
  78.3091049 165.5298920  -3.4147599  77.5056610 167.0148773  -3.2695458
  76.5231781 163.6930695  -4.0740118  76.0986786 162.8644104  -3.2539542
  77.2690811 163.2569427  -5.1136956  77.8448944 163.9243469  -5.6067629
  77.3406525 161.8663483  -5.5547256  77.1723557 161.2652283  -4.6611795
  76.1241837 161.6365356  -6.4537387  75.2686920 162.0182037  -5.8964581
  76.2280655 162.2350464  -7.3587775  75.8624115 160.2546997  -6.9317961
  74.8173065 159.4222260  -6.3807373  74.1853027 159.8217621  -5.6014137
  74.6915894 158.1242676  -6.9292035  73.8676605 157.4797211  -6.6606603
  75.5244064 157.6275940  -7.9568467  75.2495499 156.3843079  -8.5245762
  74.8693771 155.7956848  -7.8683853  76.4414215 158.5047150  -8.4927235
  77.0301132 158.1548309  -9.3278418  76.6224442 159.7974243  -8.0148125
  77.2681656 160.4348450  -8.6005945  78.6974335 161.4479218  -6.1951575
  79.2627716 162.2690887  -6.9291420  79.2261887 160.2819366  -5.8727508
  78.5724945 159.7578125  -5.3087626  80.4398499 159.6003876  -6.4169927
  80.6117630 159.8017731  -7.4743438  81.5890503 160.1378326  -5.5450301
  81.4009247 161.1352844  -5.1478090  81.6378937 159.4819946  -4.6757760
  82.9809570 160.1534424  -6.2325263  83.1101913 159.2032471  -6.7507224
  83.0739365 160.9523163  -6.9682183  84.0661774 160.2133636  -5.2105141
  83.6961746 160.8180695  -4.3825450  84.1412201 159.2240295  -4.7592058
  85.2566147 160.8786926  -5.7313418  85.1296921 161.8128967  -6.0936408
  86.4760818 160.4118805  -5.8708496  86.8207932 159.1841888  -5.5813761
  86.1548920 158.5580750  -5.1516595  87.6913071 158.8510132  -5.9703450
  87.4443207 161.2295685  -6.2375259  87.2519760 162.2101898  -6.3841290
  88.4157944 160.9542084  -6.2149005  80.4404678 158.0265198  -6.3046484
  79.8544998 157.4863281  -5.3612843  81.0317993 157.3279877  -7.2947311
  81.3185196 157.8999176  -8.0762587  81.0530396 155.8468475  -7.3672929
  80.6722565 155.2841644  -6.5149493  80.2519073 155.4153748  -8.6340771
  80.5745392 156.0238495  -9.4789276  80.4599762 154.3824158  -8.9129715
  78.7254028 155.6165771  -8.4425325  78.4719086 155.0850983  -7.5252662
  78.5081177 156.6748657  -8.2979918  78.0001221 155.0198975  -9.6782780
  77.4664993 153.8907623  -9.6011314  77.8449554 155.8052826 -10.6730480
  82.5026932 155.3833923  -7.5290141  83.2708511 155.9040222  -8.3485641
  82.7531738 154.2827606  -6.8310819  81.9782410 153.8939667  -6.3129907
  84.0339279 153.5737457  -6.6508627  84.6846619 153.9310608  -7.4489684
  84.7853928 154.0315399  -5.4075022  84.3120499 153.4767151  -4.5974188
  85.8601990 153.8611450  -5.4695663  84.8164597 155.5720825  -5.1908216
  85.2344284 155.9596710  -6.1198921  83.8053589 155.9739380  -5.1253266
  85.6898804 156.1111450  -4.0354915  86.6115341 155.3696136  -3.5544157
  85.6011810 157.3414001  -3.7836535  83.9776917 152.0329285  -6.9633393
  83.0216141 151.3393402  -6.5913367  85.0311584 151.4507141  -7.5020895
  85.8078461 151.9839020  -7.8661771  85.0925522 149.9951019  -7.6250677
  84.3360672 149.5299225  -6.9930444  84.9654007 149.6697083  -9.1376171
  83.9899368 150.0601501  -9.4276457  85.7156830 150.1692200  -9.7505312
  85.1244965 148.1957703  -9.4305687  86.0877991 147.7216644  -9.2425032
  84.4060593 147.6048431  -8.8624525  84.7748489 147.8823090 -10.9067602
  85.6217270 147.4475403 -11.7062321  83.4877472 148.0481110 -11.3369608
  83.3207474 147.9003601 -12.3220387  82.8318634 148.5142822 -10.7265549
  86.4325714 149.5050659  -6.9525490  87.5725937 149.8004608  -7.4499502
  86.3291168 148.7599945  -5.8271365  85.4055328 148.4582672  -5.5513554
  87.4758530 148.1796722  -5.1404514  88.2500305 147.8475494  -5.8321509
  88.1083374 149.1350250  -4.0893726  87.4382553 149.2150574  -3.2333994
  89.0200729 148.6473999  -3.7443187  88.6024475 150.5675201  -4.4835367
  89.3812103 150.5314789  -5.2453318  87.7226791 151.1130066  -4.8249350
  89.1615982 151.4634247  -3.4094374  88.7092209 151.4623718  -2.2412422
  90.0758362 152.2163391  -3.8277969  87.2166672 146.8062744  -4.4210281
  86.0757980 146.5647430  -4.0978451  88.2378616 145.9283905  -4.2405763
  89.1723404 146.2738800  -4.4063325  87.9883041 144.5711670  -3.6622808
  88.9203491 144.0198822  -3.7866971  87.5797424 144.7103577  -2.1292572
  86.5144806 144.9411316  -2.1213253  87.7291794 143.7171326  -1.7058471
  88.4041290 145.7066040  -1.3496602  89.7208099 145.3426208  -0.9339425
  90.0812607 144.3463593  -1.1435933  90.4880753 146.1698608  -0.1428335
  91.4541245 145.8611298   0.2284208  90.0401611 147.5126648   0.0208202
  90.9275131 148.3542175   0.6067598  91.7741776 147.9527130   0.8154863
  88.8231964 147.9549408  -0.4372729  88.4903030 148.9555817  -0.2042516
  87.9842987 147.0332794  -1.0906680  87.0253906 147.4038391  -1.4216839
  86.9328156 143.7083893  -4.4539423  86.2390747 142.8380737  -3.8849337
  86.7191620 144.0438080  -5.7716746  87.3580399 144.7315674  -6.1444130
  85.7320709 143.4289551  -6.6541538  85.9804535 143.8068390  -7.6459270
  85.8398895 142.3443451  -6.6641903  84.3134155 143.8594513  -6.4129272
  83.4173203 143.2374268  -7.0282297  84.0765381 144.9049835  -5.6056857
  84.8820419 145.4092560  -5.2636757  82.6961441 145.4329376  -5.3053780
  82.0012665 144.6562653  -5.6247816  82.4382706 145.5903168  -3.7707937
  81.3532333 145.5757141  -3.6679521  83.0690002 144.4374237  -3.0065625
  84.1517715 144.5581970  -2.9731169  82.7595596 144.4358673  -1.9614094
  82.7963028 143.5090332  -3.5083981  82.8665314 146.9496002  -3.2321801
  83.9013901 147.1551666  -3.5058773  82.3062744 147.7226562  -3.7581155
  82.7580719 147.2369080  -1.7449919  83.4180222 146.5711365  -1.1888442
  83.0428772 148.2562714  -1.4844302  81.7344666 147.1056671  -1.3941172
  82.4591599 146.7185516  -6.1196704  83.3238297 147.5504913  -6.2509532
  81.2008820 146.8712769  -6.6355481  80.5470963 146.1239929  -6.4505186
  80.6784744 148.2286682  -6.8931828  81.4734497 148.8265381  -7.3389049
  79.5924759 148.1192017  -7.9859161  78.6988525 147.6755829  -7.5468979
  79.2650146 149.1167603  -8.2787552  79.9120331 147.3144836  -9.2872124
  80.8545227 147.5575562  -9.7778511  79.9905853 146.2557983  -9.0399828
  78.8394623 147.5125122 -10.3678617  78.0959854 148.5251312 -10.3558950
  78.7388992 146.6490479 -11.2998514  80.1342468 148.9216461  -5.5996518
  79.4638138 148.2424011  -4.7921104  80.4574661 150.1747284  -5.3327942
  81.1869278 150.5906830  -5.8940134  79.9459152 150.9199219  -4.1355920
  78.9792709 150.4636536  -3.9222569  80.8287964 150.5372925  -2.9655271
  80.7586441 149.4850922  -2.6897264  82.3258057 150.8343506  -3.2495615
  82.4545059 151.8344879  -3.6633785  82.8636322 150.8052063  -2.3019326
  82.7657089 150.1733704  -3.9963489  80.4777451 151.2745209  -1.8147259
  80.9987488 151.0311279  -1.0460140  79.7803650 152.4501648  -4.3717546
  80.1796799 152.9371948  -5.4474969  79.1472931 153.1963043  -3.4798334
  78.8077545 152.7790680  -2.6250064  78.7360764 154.6434021  -3.7516842
  79.5903244 155.0620422  -4.2837620  77.4328690 154.6585541  -4.6957374
  77.6014404 154.0672455  -5.5957589  76.1570511 154.1616516  -3.9731975
  75.7891083 154.8518219  -3.2140038  75.3448639 154.1359863  -4.6996884
  76.3764114 153.2029266  -3.5032787  77.0000610 155.9892120  -5.1765242
  77.7505951 156.3325348  -5.8885217  76.0154343 155.9193726  -5.6388340
  76.7283859 156.6762543  -4.3750982  78.6502457 155.5166626  -2.5450561
  78.2734451 155.0420837  -1.4466158  79.1175232 156.7771454  -2.7011027
  79.5853958 156.9833832  -3.5721159  79.2456436 157.7427673  -1.5961323
  78.9832611 157.2971649  -0.6366050  80.6833115 158.1344757  -1.6073021
  81.0360641 158.3341980  -2.6191201  80.8315582 159.0909576  -1.1060597
  81.5895309 157.0001373  -1.0349579  81.3658600 156.7839203   0.0097063
  81.4503632 156.0262604  -1.5043423  83.0679321 157.4968414  -1.0455093
  83.3058090 158.0610962  -1.9472452  83.1566696 158.2961121  -0.3097185
  84.2286530 156.4831696  -0.8024313  83.8241043 155.8276215  -0.0312618
  84.4650269 155.9219208  -1.7064347  85.5229263 157.1246796  -0.5455524
  85.4487076 157.7524567   0.2421525  86.0591049 156.3697968  -0.1421134
  85.9250031 157.5155792  -1.3855666  78.2935257 158.9633026  -1.8959284
  78.4111481 159.6616364  -2.8998590  77.3633270 159.2247009  -0.9874834
  77.2930450 158.6848297  -0.1367742  76.2879944 160.1929779  -1.2164340
  76.6450958 160.7765656  -2.0649700  74.9219971 159.6533661  -1.6229250
  74.3485107 160.5347290  -1.9100039  74.9699249 158.8072205  -2.9017742
  75.1805801 157.7564240  -2.7028639  73.9741364 158.7366638  -3.3394105
  75.7266388 159.1772919  -3.5935349  74.0726089 158.8608093  -0.4988286
  73.7537003 159.5706787   0.2643842  73.1408234 158.5320435  -0.9590400
  74.6110153 157.9679871  -0.1808918  76.1464157 161.0984802  -0.0049401
  76.1496506 160.6464691   1.1186032  75.8586121 162.3787842  -0.3159329
  75.8695450 162.6425934  -1.2908087  75.3900146 163.2924500   0.7504891
  75.3456268 162.7666473   1.7042485  76.4021988 164.5065613   0.8302126
  76.5840836 164.8713074  -0.1807176  75.8176346 165.2416382   1.3834251
  77.6572418 164.1257019   1.5799822  77.4896240 164.2095490   2.6537492
  77.8537369 163.0775452   1.3544850  78.9263687 164.8914948   1.2678986
  79.7643738 164.4711914   1.8239501  79.2625427 164.6813965   0.2525414
  78.8631058 166.3733368   1.5387309  77.9595108 166.7719421   1.0775039
  78.7118225 166.4049377   2.6177180  80.0597916 167.0858307   1.0383517
  79.9623489 167.1800079   0.0374845  80.1130753 168.0231323   1.4107975
  80.9627838 166.7003326   1.2752042  73.9920959 163.7049713   0.4119351
  73.6610565 164.0588531  -0.7436163  73.1070023 163.8201599   1.4356533
  73.4560776 163.5022736   2.3285122  71.7232361 164.2536926   1.3603456
  71.5536804 164.7031097   0.3818928  70.8507843 162.9704590   1.3195239
  70.8385315 162.4418945   2.2727184  69.8292694 163.2769012   1.0943862
  71.2370987 162.2419739   0.6066514  71.2559662 165.2193909   2.3953948
  71.9909058 165.4860535   3.3235676  70.0389099 165.7881012   2.2294269
  69.7067566 165.6559296   1.2848105  69.5164566 166.8717957   3.0486274
  69.9269104 166.7914429   4.0551920  69.9630356 168.2537384   2.4561863
  71.0359726 168.2964935   2.2688706  69.3036041 168.6388397   1.1675425
  68.2458496 168.8924255   1.2378514  69.8299789 169.4510803   0.6662360
  69.3587952 167.7945404   0.4803639  69.6527176 169.3878479   3.5055115
  68.6235580 169.6845093   3.3032408  69.6694336 168.9647980   4.5099325
  70.5432358 170.6138306   3.4488256  70.5317459 171.0795441   2.4633908
  70.1056595 171.3601685   4.1118493  71.5133057 170.2486725   3.7860589
  68.0755234 166.7072754   3.0787334  67.3326950 166.4056244   2.1438391
  67.4637070 166.9301453   4.2403374  67.9913559 167.3153534   5.0106010
  66.0107727 166.7425690   4.3940682  65.6883316 165.8239288   3.9039102
  65.8822403 166.6020203   5.4673042  65.1598434 167.8658600   3.9095838
  65.2160873 169.0101624   4.4161992  64.3461838 167.6851807   2.8466978
  64.4717331 166.7935028   2.3892646  63.4637413 168.6678162   2.1571264
  63.9069824 169.6634674   2.1744952  63.4086113 168.2814026   0.7191574
  63.1871719 167.2144470   0.6930562  62.6963387 168.8543549   0.1254579
  64.7213058 168.3963470  -0.1251580  65.6032944 168.2331238   0.4941627
  64.6240540 167.6916809  -0.9510450  65.0192184 169.7394104  -0.7994103
  65.9016953 169.5505829  -1.4107031  64.1742020 169.9466705  -1.4559878
  65.2324982 170.8854065   0.1469299  64.3760757 171.2419739   0.5463066
  66.3590317 171.4569244   0.5830695  67.5317841 171.2409058   0.0243051
  67.6051331 170.6241150  -0.7721187  68.2817307 171.8934631   0.2027604
  66.2957611 172.4334259   1.4661644  65.4243698 172.7085571   1.8963890
  67.1679459 172.8855133   1.7006861  62.1242218 168.8023987   2.8345017
  61.7223663 169.9111481   3.2028532  61.4535866 167.6428680   3.0366089
  61.9008141 166.7545929   2.8603559  59.9483681 167.5252228   3.3219416
  59.6501579 168.5172424   3.6611402  59.1346817 167.1512146   2.0810909
  59.3153419 166.0865173   1.9331691  58.0728607 167.2309723   2.3140781
  59.3722801 167.9330292   0.7729889  59.0767860 168.9793549   0.8503097
  60.4367561 167.9831238   0.5438987  58.6594925 167.2479858  -0.3641407
  57.7336845 167.7879333  -0.9185889  58.9996033 166.0167542  -0.7132161
  58.5231628 165.7444763  -1.5611408  59.8792763 165.6262512  -0.4069902
  59.7110100 166.5311584   4.4513798  60.4094200 165.5261536   4.5195622
  58.6180687 166.7437439   5.2253170  58.1070137 167.5890198   5.0145221
  58.0181351 165.7516327   6.1002445  58.7715187 165.0546417   6.4673076
  57.3502426 166.4627533   7.2840347  56.8230553 167.3797150   7.0206819
  56.5828209 165.8071899   7.6956224  58.3136787 166.7068481   8.4404259
  58.7521057 165.7378998   8.6792288  59.1162834 167.4019012   8.1937943
  57.5937614 167.1900024   9.7091246  56.8619385 166.4375305  10.0029478
  58.2536240 167.2572479  10.5740871  56.9941711 168.5712280   9.5585527
  57.4811249 169.2781982   9.0264206  55.8118553 168.9668121  10.0259628
  54.9812431 168.1277161  10.5137215  55.2984390 167.1712646  10.5821571
  54.4042854 168.4995117  11.2546635  55.4489021 170.2089081  10.0775909
  56.0431976 170.9407501   9.7152128  54.5458260 170.5652771  10.3560867
  56.9434624 164.9522400   5.2333994  56.2144203 165.5713501   4.4047985
  56.5073662 163.8036194   5.7535167  56.9674187 163.3188629   6.5107837
  55.2805901 163.1585388   5.3185911  54.5223122 163.9081268   5.0922270
  55.5788574 162.3738861   4.0310049  54.6433983 161.9586487   3.6560371
  55.9394302 162.9913330   3.2082942  56.6528511 161.2574005   4.1504512
  56.4155197 160.1107025   4.9363842  55.4129295 159.9094696   5.2838326
  57.4293251 159.2105713   5.2769713  57.2209587 158.2904968   5.8027530
  58.6688118 159.3686523   4.7407079  59.4008865 158.5832214   4.8571992
  58.9169731 160.3903961   3.8036280  59.8872490 160.4489441   3.3329513
  57.9482307 161.3742218   3.6276233  58.2056503 162.2474213   3.0465522
  54.5525360 162.3170776   6.4288054  55.2054482 161.7636108   7.3054829
  53.1983261 162.0917358   6.2580700  52.7285690 162.6331177   5.5464954
  52.4932861 160.9099121   6.8040233  52.9515038 160.6902924   7.7683387
  51.0039215 161.2119904   6.8975949  50.8799973 162.2303467   7.2659602
  50.5245361 161.2388611   5.9190421  50.1671028 160.2568054   7.7770100
  50.3871956 159.2290344   7.4882784  50.5030403 160.5110168   8.7823048
  48.6540184 160.5046387   7.8135562  48.3056030 160.6751251   6.7949080
  48.2032890 159.6047668   8.2321033  48.1008415 161.6934509   8.6375179
  48.6010017 161.5119171   9.5888262  48.3756599 162.6596375   8.2143526
  46.6143188 161.6875153   8.8131733  46.2768669 160.8138580   9.1912565
  46.2912483 162.3967133   9.4556503  46.1562576 161.8519135   7.9281549
  52.6079483 159.6600189   5.9220037  52.5265923 159.8207855   4.6832852
  52.8734398 158.4427185   6.4572916  52.9375000 158.4339905   7.4652205
  52.8059349 157.0991211   5.8393893  53.2874641 157.2263947   4.8698387
  53.6742287 156.0961304   6.6434402  53.2956429 156.1035156   7.6655545
  53.5680962 154.7092590   6.0302815  54.0070152 154.7131195   5.0325680
  54.0870094 154.0802002   6.7535448  52.5114670 154.4480591   5.9718976
  55.1371002 156.5277710   6.6810179  55.2759781 157.5572968   7.0110030
  55.6926079 155.9625092   7.4293370  55.5883408 156.5643463   5.6894822
  51.3720474 156.6003265   5.6862454  50.6535263 156.3149414   6.6288486
  51.1121941 156.0847473   4.4699492  51.7967453 156.3107605   3.7625523
  49.9238586 155.3914642   4.0543551  49.1948242 155.5520020   4.8486090
  49.3980484 156.0950470   2.7971570  50.2979698 156.1035156   2.1822016
  48.6926270 155.3722076   2.3873112  48.8034401 157.5043640   2.8358920
  49.4924431 158.0983582   3.4363532  48.6157875 158.0102539   1.4498311
  47.8360138 157.4561768   0.9272880  48.3279343 159.0591583   1.3789365
  49.5350609 157.9646301   0.8659164  47.3861771 157.5014191   3.4809227
  47.6123734 157.3731232   4.5394540  46.8740845 158.4453125   3.2940395
  46.7808800 156.7531281   2.9692726  49.9790268 153.8471222   3.8905406
  49.1746368 153.1150055   4.4619417  51.0911407 153.4834137   3.2915652
  51.7995186 154.1732483   3.0855935  51.4103279 152.0541534   3.1175849
  51.1829605 151.4492493   3.9953585  50.5529480 151.5218506   1.9400308
  49.5348396 151.8887634   2.0701394  51.0308533 151.9866333   1.0776495
  50.4607544 150.0202332   1.6321224  51.3665848 149.4928284   1.9311262
  49.6805725 149.6315918   2.2866232  50.1539726 149.6233063   0.1946393
  49.4236107 150.3417511  -0.5303528  50.5279503 148.4945221  -0.2130549
  52.9393883 151.9332581   2.8770986  53.6392708 152.8311157   2.4481773
  53.4635201 150.7023010   3.2337971  52.8797874 149.9311523   3.5248349
  54.8543510 150.3380280   2.9067132  55.3387146 151.0715179   2.2621303
  55.8565712 150.2532196   4.0709782  55.5358276 149.4086914   4.6808858
  57.2655983 150.0208130   3.5048754  57.6652260 150.8603363   2.9360251
  57.9362602 149.9651642   4.3623233  57.3320122 149.0780792   2.9617736
  55.8757401 151.5493317   4.9286313  56.4167366 152.2869110   4.3358426
  54.8485718 151.8675232   5.1069064  56.5491257 151.3573608   6.2706337
  57.5790405 151.0008545   6.2870097  56.5835533 152.2943726   6.8264546
  55.9390259 150.6860657   6.8749909  54.7871933 149.1001282   2.0680280
  54.2063255 148.1221466   2.5652628  55.3579407 149.0676727   0.8636727
  55.7628365 149.9048767   0.4696628  55.5523567 147.8560791   0.0815397
  55.0693130 146.9917908   0.5373495  54.9237900 148.1014557  -1.3007216
  53.8671074 148.3299713  -1.1618097  55.4100189 149.0047607  -1.6691338
  54.9823227 146.9285583  -2.2565911  56.0163460 146.6271973  -2.4241557
  54.4509201 146.0463409  -1.8996528  54.2325020 147.2217560  -3.6058908
  53.1913834 147.2515869  -3.2845039  54.5595169 148.1596680  -4.0547695
  54.4695282 146.0155792  -4.5331721  54.6847649 145.1072388  -4.1475554
  54.5028229 146.1021118  -5.8608923  54.6497498 147.2810669  -6.4669027
  54.6832008 148.1229248  -5.9098902  54.9448090 147.2904358  -7.4327965
  54.5535927 145.0006866  -6.5571456  54.6638298 144.0873413  -6.1403260
  54.5419540 145.2084351  -7.5454822  57.0487328 147.5762482  -0.0298653
  57.7607536 148.5492401  -0.1037833  57.4255371 146.3457184  -0.1792909
  56.6794281 145.6752625  -0.2972955  58.8491592 146.0334167  -0.4379629
  59.3677177 146.9915466  -0.4721763  59.5071030 145.2506409   0.6547875
  59.1928101 144.2074432   0.6875255  61.0284157 145.2485046   0.5340638
  61.4494705 146.1954651   0.8718348  61.4788322 144.4496155   1.1231242
  61.2415123 145.0507965  -0.5164597  59.1802559 145.8821716   1.8922104
  58.3567162 145.5603027   2.2660885  58.9426003 145.3435822  -1.7640600
  58.0981522 144.5073242  -2.1588161  59.9808731 145.7156982  -2.5317814
  60.6098328 146.4181519  -2.1697407  60.3077049 145.0909271  -3.8491316
  59.4615707 144.5715485  -4.2990232  60.7902565 146.1463013  -4.8807750
  61.6059837 146.6850128  -4.3986092  61.2377434 145.5930481  -5.7064676
  59.6385231 146.9699707  -5.4152288  58.8416176 146.3319550  -5.7972956
  59.1304245 147.3741608  -4.5396833  59.9204674 148.2092438  -6.2440481
  60.2821541 149.2623291  -5.7880425  59.6959038 148.1525726  -7.5413585
  59.9441528 148.9430542  -8.1189594  59.3164482 147.3708344  -8.0561314
  61.3043938 143.9001465  -3.6318831  61.9842110 143.8147583  -2.5911982
  61.3704224 143.0209351  -4.5967445  60.8495407 143.2813110  -5.4219637
  61.9926987 141.7295227  -4.5645270  61.4682999 141.1638641  -3.7943642
  61.8239174 141.0274048  -5.8431616  62.2627411 141.5718689  -6.6792789
  62.3551102 140.0767975  -5.7953897  60.4325371 140.7904510  -6.1265235
  60.2456398 140.1138153  -6.7813840  63.4619865 141.8666382  -4.2671065
  64.0812149 141.0601501  -3.6144621  64.1378632 142.8661346  -4.8451829
  63.6628342 143.4876709  -5.4840398  65.5269470 143.1573792  -4.5060544
  66.1708908 142.2863312  -4.6273336  65.9542542 144.1534576  -5.6066833
  67.0377655 144.1086121  -5.7166462  65.7044525 143.7108154  -6.5709329
  65.4277344 145.5533447  -5.4668555  64.6242828 145.8185730  -4.6042314
  65.9836273 146.4712372  -6.1301646  65.7473068 143.6940155  -3.0327516
  66.8598328 143.8242798  -2.5252171  64.6732635 143.8912964  -2.2778361
  63.7635803 143.9001160  -2.7165768  64.6725006 144.0715485  -0.7969369
  63.7753525 143.5793304  -0.4215096  65.5293427 143.5494385  -0.3711205
  64.7023010 145.4898834  -0.2887017  64.9383392 145.7166138   0.8797753
  64.4976120 146.4944305  -1.1548734  64.4916992 146.2963715  -2.1452506
  64.2830963 147.9258118  -0.7416996  64.7743530 148.0429993   0.2242358
  64.9520645 148.9679108  -1.7019744  64.9542923 149.9487915  -1.2266369
  66.4442596 148.6361542  -1.9049525  66.5188522 147.7470551  -2.5310853
  66.7855530 149.5639343  -2.3641338  67.0281830 148.4345245  -1.0069159
  64.2514877 149.0355988  -3.1164379  64.9573517 149.0755157  -3.9460528
  63.8073120 148.0518494  -3.2682276  63.2644958 150.1427765  -3.2225437
  63.7777443 151.0750732  -2.9869812  62.7751389 150.1817627  -4.1957388
  62.4037170 150.0039520  -2.5684061  62.8026390 148.2277832  -0.5287428
  61.9914169 147.6173553  -1.2435170  62.4778328 149.1711426   0.3826517
  63.2090607 149.6136627   0.9207737  61.1643906 149.5009003   0.7068523
  60.5566978 148.7048798   0.2765472  60.9735832 149.6145020   2.2191010
  61.3265457 150.6000519   2.5227673  59.8881645 149.6048431   2.3184800
  61.4522476 148.4227142   3.0580559  61.2291260 147.4979095   2.5260341
  62.5347061 148.3568268   3.1677909  60.8091202 148.2741852   4.4897733
  61.2645226 148.9320068   5.4615388  59.8278275 147.4042816   4.5647779
  59.3642731 147.3131256   5.4574790  59.6134758 146.7715607   3.8072655
  60.7216530 150.7000580  -0.0759792  61.5789566 151.5753479  -0.5060406
  59.4180031 150.8059845  -0.3271129  58.8366356 150.0154419  -0.0880179
  58.7549667 151.9056244  -0.9621305  59.4475060 152.7262573  -1.1493704
  58.2791252 151.4158173  -2.2772839  57.7442856 150.4679260  -2.2175353
  57.5140343 152.1029816  -2.6385939  59.3803329 151.1933746  -3.3048766
  60.3182220 150.8048859  -2.9079549  59.0254974 150.4120636  -3.9769967
  59.7150536 152.4133911  -4.1581454  59.2226067 153.5078735  -3.9342399
  60.4111404 152.2600098  -5.2766833  60.5822105 153.0941925  -5.8197932
  60.6868210 151.3318176  -5.5640330  57.5621567 152.3328247  -0.0548529
  56.5249977 151.6170197   0.0536244  57.6626549 153.5393982   0.5044743
  58.4808769 154.1104736   0.3480389  56.5329323 154.0602112   1.2599330
  55.9502563 153.3130188   1.7987387  57.1342850 155.0323944   2.2650728
  57.5469971 155.9231110   1.7913911  56.4220695 155.2874451   3.0497994
  58.0208588 154.5940704   2.7232988  55.6099472 154.7876740   0.2463978
  56.0441742 155.6901703  -0.5031520  54.3182793 154.5419312   0.4109231
  54.0388641 153.8120117   1.0506358  53.2494202 155.4665833  -0.0502877
  53.5065155 155.9435883  -0.9960487  51.9989624 154.7788086  -0.4187698
  51.5592842 154.2707672   0.4395330  51.2313995 155.5321350  -0.5960563
  52.0713501 153.7743225  -1.6337401  53.0581055 153.6361389  -2.0756960
  51.8931808 152.7955170  -1.1884412  51.0670547 154.2451477  -2.7234497
  50.0844574 154.1586914  -2.2596283  51.2100029 155.3057709  -2.9301748
  50.9570656 153.5108337  -4.1093225  50.2875023 154.1064453  -4.7298403
  51.9262390 153.5296021  -4.6077700  50.4464340 152.1115875  -4.0576992
  49.6452293 151.9884644  -3.4551883  50.1888657 151.8742065  -5.0050178
  51.1843262 151.5390778  -3.6731706  53.0612793 156.5870819   0.9935881
  52.8670273 156.2445068   2.2006898  53.1810570 157.8447418   0.6147417
  53.3491516 158.0057068  -0.3680771  53.0435982 158.9553223   1.5545098
  52.6160278 158.5245056   2.4598689  54.4590073 159.4299011   1.9426512
  54.4208565 160.0186768   2.8591628  55.3898010 158.2624359   2.2735131
  55.7590981 157.7765808   1.3703719  56.2849464 158.6868439   2.7281485
  54.9037857 157.5803833   2.9711416  55.1801567 160.2347565   0.8604258
  54.7077866 161.2000732   0.6783668  56.1820831 160.4277191   1.2438511
  55.2436295 159.6172943  -0.0355719  52.1497650 160.1436920   1.1363831
  51.8218994 160.2741852  -0.0455788  51.7328453 161.0540771   2.1073260
  51.9401817 160.6580658   3.0130179  51.1544609 162.4127655   1.9293418
  51.1362343 162.5526123   0.8485041  49.7175369 162.5017395   2.5188200
  49.0676765 161.7947388   2.0031354  49.6223297 162.3669739   3.5962615
  49.0751953 163.9201813   2.3426697  49.4660645 164.6132965   3.0875926
  49.2764130 164.2786865   1.3331712  47.5740547 163.9612122   2.4849362
  46.8035011 163.0188446   2.2146461  47.0483437 165.0817261   2.9917250
  46.0460243 165.1057587   3.1137445  47.6195221 165.8544922   3.3026693
  52.1219597 163.5390472   2.4673777  52.4142647 163.5630646   3.6881847
  52.5641174 164.5023193   1.6102144  52.2184753 164.4146576   0.6652551
  53.6085854 165.4825287   1.9492477  54.3396988 165.0265808   2.6168485
  54.2974014 166.0232239   0.6537101  53.6054649 165.9452820  -0.1848895
  54.7463150 167.5128021   0.8019806  55.6121101 167.5519562   1.4630109
  54.9481697 167.9446106  -0.1782755  53.9444199 168.1667023   1.1447456
  55.4961739 165.1741791   0.2755696  55.9023209 165.4729462  -0.6908055
  56.2965698 165.3794861   0.9864306  55.3433571 163.6663361   0.1420131
  54.6613579 163.3743439  -0.6565587  56.2582626 163.1031952  -0.0421804
  54.9178619 163.2555389   1.0576026  52.9747009 166.6065826   2.7948971
  51.9542732 167.2200012   2.4293785  53.5498505 166.8831940   3.9389229
  54.4406815 166.4483032   4.1322727  53.0012360 167.8029785   4.9197459
  51.9217453 167.8459015   4.7749586  53.2704239 167.1381989   6.2592816
  54.3399696 166.9280548   6.2564139  53.0778618 167.8332062   7.0765853
  52.5324631 165.7868500   6.5350237  52.7346039 165.0812683   5.7291799
  52.9878807 165.1609344   7.8805285  52.8939590 165.8874207   8.6876926
  52.3655777 164.3095551   8.1561775  53.9897118 164.7332611   7.8414674
  51.0087242 166.1025085   6.4836106  50.6134491 166.0318909   5.4702597
  50.4646759 165.4527893   7.1691661  50.8489456 167.0948334   6.9053183
  53.5138054 169.2327271   4.9287419  54.7085114 169.4344788   4.7201753
  52.5985374 170.2405548   5.0761499  51.1436768 170.1899567   5.0875440
  50.9082642 169.5755615   5.9565625  50.7265587 169.6626587   4.2295990
  50.5507393 171.6172333   5.1734962  50.2915077 171.8211212   6.2124043
  49.6803436 171.6787567   4.5202456  51.7386932 172.4401245   4.7596893
  51.6569366 173.4563446   5.1452961  51.7788124 172.4905701   3.6715941
  53.0018768 171.6248322   5.1343966  53.7908096 171.8794403   4.4266791
  53.3649483 171.9763947   6.5631661  52.8249893 171.5135651   7.5645700
  54.1264420 173.0049591   6.6864033  54.4686928 173.2863007   5.7787600
  54.2727394 173.9659729   7.8090887  54.4333725 173.4483337   8.7547846
  55.4734993 174.8627930   7.5390153  55.5642929 175.2253113   6.5150805
  55.4209251 175.6609650   8.2794647  56.7329445 174.0488586   7.7313581
  56.7606087 173.1587982   7.1027703  57.5317841 174.7513580   7.4937396
  56.9530144 173.7195435   9.2138014  57.4292183 174.6747284   9.8806601
  56.8083572 172.5209808   9.6215563  52.9653625 174.8260193   7.9190226
  52.4402695 175.4056396   6.9349866  52.3444786 174.7801819   9.0774946
  52.5848389 174.1396027   9.8204498  51.0771332 175.5890961   9.3249102
  50.5013351 175.6716003   8.4030924  50.1511116 174.9055786  10.3472443
  50.6316833 174.8273773  11.3224564  49.2611008 175.5193329  10.4860859
  49.5791283 173.5656586   9.9083118  49.2565498 173.5443420   8.8673563
  50.4498444 172.9112091   9.8676815  48.6033440 172.9079590  10.8851948
  48.4498291 171.9207916  10.4492731  49.0208817 172.8289795  11.8889503
  47.3123016 173.6088715  10.7907801  47.1679726 173.9790649   9.8622217
  46.3070068 173.7245483  11.6683722  46.3704987 173.1553192  12.8313713
  47.0408173 172.4229126  13.0167503  45.5298119 173.1264343  13.3903952
  45.2799263 174.4789581  11.4472170  45.3782845 174.9953308  10.5847921
  44.3997231 174.4605103  11.9421949  51.3915787 177.0487976   9.7367678
  51.2321243 177.4658203  10.8684111  51.8133316 177.8506775   8.7519207
  51.9519501 177.4778595   7.8235373  52.4903488 179.0784302   9.0844059
  53.1675148 179.0544434   9.9382067  53.4259758 179.4628143   7.8903160
  52.7958336 179.8274994   7.0791306  54.1739731 180.7475281   8.2963505
  54.8983269 180.5546265   9.0876751  54.5823708 181.2120667   7.3988419
  53.4533997 181.4245300   8.7552042  54.4347878 178.3671265   7.2855101
  53.8356934 177.7385406   6.6266766  55.2377892 178.9066315   6.7832937
  54.8912277 177.8360138   8.1207857  51.4685974 180.2345428   9.3670082
  50.7428131 180.7158051   8.4924021  51.3289833 180.6102905  10.6736622
  51.8637428 180.1549988  11.3995104  50.4097252 181.6199188  11.2009335
  49.4878387 181.4958801  10.6327448  50.0722160 181.2374268  12.6212940
  50.9351730 181.2008209  13.2861729  49.3655777 181.9803619  12.9911785
  49.3845215 179.8764648  12.9171133  50.0521431 179.0857849  12.5747404
  49.1371422 179.7115784  14.4716511  48.5455933 180.5664520  14.7993135
  48.5059433 178.8292999  14.5778484  50.0813866 179.6110229  15.0068045
  48.0306549 179.8063660  12.1611795  48.1760101 179.7856750  11.0811119
  47.7409134 178.7633057  12.2884016  47.3910332 180.6152954  12.5141668
  50.8245316 183.0907898  10.9481583  51.9576378 183.4832764  11.2306480
  49.8822289 183.9854126  10.5896454  48.4677887 183.6790771  10.2575216
  47.8978996 183.0704193  10.9595642  48.4737167 183.1944275   9.2812109
  47.7617226 185.0238800  10.1702232  47.3141174 185.2836151  11.1295376
  46.9765587 185.0243530   9.4141617  48.9338303 185.9462585   9.8614511
  48.6368103 186.9585419  10.1355991  49.1148148 185.8849182   8.7883329
  50.1395187 185.4258728  10.5697832  50.9826164 185.6501007   9.9163198
  50.2447968 185.9303131  12.0158110  49.9238014 185.2387695  12.9804163
  50.5181770 187.2294922  12.1421824  50.6195831 187.7264709  11.2687817
  50.5923309 187.9396210  13.4746132  51.3652725 187.4747009  14.0865870
  50.9642715 189.4220123  13.2615824  51.8748245 189.6224823  12.6969528
  50.2073441 189.9890900  12.7197447  51.0492249 190.0606995  14.4857550
  51.2933502 190.9795074  14.3523397  49.2500839 187.8487854  14.1708059
  48.1560364 188.0149994  13.6283131  49.3269997 187.5421753  15.4649630
  50.2401161 187.5201721  15.8960495  48.2535553 187.2997589  16.3729305
  47.7513313 186.3872681  16.0516319  48.7606201 187.0802002  17.7981567
  48.0164413 187.3211823  18.5572548  49.2279243 185.6144867  18.0560989
  50.0076256 185.3523712  17.3409252  49.6883163 185.5786591  19.0434494
  48.4368172 184.8833160  17.8898106  49.8631096 187.9738312  18.0930901
  50.3425407 187.6147308  18.8432865  47.2891884 188.4723969  16.4505978
  46.0946274 188.2558746  16.5658398  47.8642502 189.6673126  16.3269157
  48.8695297 189.6903229  16.2321129  47.1969185 190.9111633  16.4366570
  46.3134232 190.8008118  17.0654335  48.1411896 191.9998016  17.0867748
  48.9823990 192.2832031  16.4542007  47.5930710 192.9399872  17.1478710
  48.6375237 191.7761230  18.4794369  49.0589981 190.7709656  18.4696541
  49.4982033 192.4061279  18.7040157  47.4893646 191.9383850  19.8983955
  46.5568657 190.3488770  19.9893551  47.2733841 189.5693359  19.7304916
  46.1352997 190.3138885  20.9939251  45.7603264 190.2408447  19.2531719
  46.6963806 191.4125519  15.0787821  45.8691826 192.2943115  15.0622454
  47.1330910 190.8675232  13.8542709  47.8468285 190.1529083  13.8510342
  46.6641693 191.3935699  12.5393658  46.6375160 192.4818573  12.5942745
  47.6717453 191.0812836  11.3678713  47.4409218 191.6583252  10.4724188
  48.6192894 191.5695038  11.5956659  47.7766151 189.7182922  10.9856892
  47.9826393 189.5982361  10.0557737  45.2246246 190.9617462  12.2792149
  44.5665169 191.5295410  11.4000654  44.7056961 190.0807343  13.0695419
  45.3173332 189.4818726  13.6056213  43.2781448 189.6766815  13.2914495
  42.8643265 189.6772003  12.2830582  43.0906105 188.2764893  13.8350735
  43.8365479 188.1890259  14.6250324  42.1004829 188.0586243  14.2354231
  43.3232346 187.5091705  13.0966930  42.5044403 190.7282257  14.1453238
  41.3646660 190.4397278  14.5372725  43.1274529 191.8676147  14.5105515
  44.1073341 192.0472412  14.3441982  42.4117012 192.8506012  15.3880596
  41.4359856 192.9265442  14.9081554  42.3113098 192.2934265  16.8054543
  42.2688255 191.2139740  16.6603241  43.5942307 192.4843140  17.6985168
  43.6594696 193.5337524  17.9857731  43.4534683 192.0156555  18.6724987
  44.5581627 192.1978302  17.2779655  41.0052681 192.6445160  17.4902210
  40.1374359 192.1323547  17.0746899  40.9890022 192.2849884  18.5190964
  40.7840958 193.7103271  17.4334641  42.9656448 194.2668152  15.4017811
  42.2131424 195.1808167  15.6924944  44.2336960 194.4955902  14.9484491
  44.7981567 193.6950378  14.7022285  44.8142586 195.8387146  14.7938070
  44.4320450 196.5699921  15.5060253  46.3407135 195.7717896  15.0403624
  46.6498909 196.8117981  15.1446381  46.6042480 195.3633575  16.0159874
  47.2298012 195.1099854  13.9823027  47.4198608 194.1174622  14.3908119
  46.7647095 195.0083923  13.0017586  48.6285172 195.7102661  13.8507166
  49.2588615 196.1731873  14.7849054  49.2403908 195.4212036  12.6871786
  50.0703354 195.8829193  12.3435001  48.6421509 194.9606323  12.0163012
  44.4337158 196.4310608  13.4814796  45.2613678 197.0454407  12.7475166
  43.1837120 196.2357941  13.0653076  42.5953674 195.6781006  13.6677389
  42.4571342 196.9186707  11.9878511  43.1435127 197.0757904  11.1558027
  41.2896652 196.0176392  11.4879618  40.5246391 195.9220734  12.2584848
  40.7115021 196.5839996  10.7578487  41.7343826 194.6685791  10.8137980
  42.6364670 194.8835144  10.2409554  42.0425644 193.5633850  11.8288136
  41.3634758 193.4229584  12.6697741  42.1553001 192.6371460  11.2653723
  43.0218315 193.7846222  12.2532988  40.6117172 194.0975494   9.9776678
  40.3090935 194.8691711   9.2697620  40.8472633 193.2285156   9.3633423
  39.7535286 193.9171295  10.6250143  42.1591873 198.4088287  12.3878717
  40.9804268 198.7867279  12.5005255  43.2046204 199.1783752  12.7613535
  44.0913048 198.8341980  12.4216032  43.0306969 200.5635986  13.2850971
  42.1999054 200.9491730  12.6941462  42.6590118 200.5432892  14.7924271
  42.3011894 201.5276337  15.0942688  41.7758255 199.9055023  14.8287716
  43.7329254 199.9607544  15.7072906  44.2784271 199.1351776  15.2501745
  44.4999275 200.7012634  15.9341383  43.2161026 199.4155273  17.0941429
  43.7518311 198.4944153  17.6383629  42.1760101 199.9293060  17.6215343
  41.7817650 199.4073334  18.3910885  41.6908150 200.6586456  17.1188011
  44.2639923 201.3508148  12.9275169  45.2961655 200.7949219  12.5473824
  44.2542267 202.6869812  13.0137806  43.4342155 203.0830536  13.4506102
  45.3412933 203.6258698  12.6296625  45.4277382 203.6360931  11.5431423
  44.9651451 205.0022888  13.1108084  45.7953339 205.6670532  12.8721237
  44.1011276 205.3528290  12.5462780  44.8271637 204.9841309  14.5608892
  44.2231445 205.7117767  14.7260551  46.7625580 203.2226105  13.1300154
  47.7564888 203.6818390  12.5434237  46.8373985 202.5876160  14.2969437
  45.9658279 202.3783264  14.7624102  48.0257034 202.1755829  15.0637445
  48.7020264 203.0272827  15.1365099  47.6440277 201.7788849  16.4810257
  46.8147697 201.0850067  16.3433170  48.4517975 201.1607666  16.8728600
  47.3744698 202.8967133  17.4607773  48.1022377 203.7020874  17.3617687
  46.0093727 203.4995575  17.2452641  45.2085114 202.7603149  17.2296238
  45.7478676 204.2222748  18.0181770  46.0937004 204.0139313  16.2879734
  47.3753738 202.3042908  18.9047146  48.3293152 201.7932129  19.0347042
  47.2190819 203.0930634  19.6405907  46.5338783 201.6265259  19.0483265
  48.8456802 201.0489197  14.3784790  49.8994141 200.6760406  14.8597631
  48.3349190 200.4406281  13.3303337  47.4146805 200.7424774  13.0437174
  49.0463028 199.3431396  12.6179924  49.0722504 198.5594788  13.3751621
  48.1588554 198.7863312  11.4959011  48.6375122 197.8634949  11.1682425
  47.2060013 198.5622711  11.9754496  47.9395828 199.7662201  10.4252806
  47.0235748 199.7978973  10.1397505  50.4712105 199.6369324  12.0960093
  51.3964577 198.8347626  12.1566343  50.6522751 200.8662109  11.5807562
  49.8339500 201.4537506  11.5083408  51.9655876 201.4269867  11.0533600
  52.4581871 200.6500092  10.4687481  51.6783867 202.6430817  10.1462421
  52.4987144 202.8112946   9.4484758  50.8664818 202.3613586   9.4757614
  51.3165588 203.8830109  10.9116220  50.5511818 203.6266174  11.6441231
  52.1563263 204.2290802  11.5142193  50.8751259 205.0491943  10.0513582
  51.6050987 205.8202972   9.8050661  50.5594940 204.6375427   9.0927038
  49.6705780 205.5760651  10.6986303  48.9046364 204.9617767  10.9354572
  49.4091949 206.8319702  10.8330030  50.2366028 207.7749786  10.7376547
  51.1543121 207.6744690  10.3280077  50.0133057 208.7343292  10.9610138
  48.2376976 207.1231079  11.2073030  47.5262604 206.4110718  11.2907209
  48.0762520 208.0801086  11.4869261  53.0371094 201.7554626  12.0609150
  54.0029449 202.4908752  11.7404871  52.8307304 201.3096161  13.2841330
  52.0036583 200.7684479  13.4919586  53.8842621 201.4074860  14.3095741
  54.3284149 202.3991394  14.2232714  53.2108040 201.4588165  15.6409273
  52.6019936 200.5547028  15.6355114  53.8715096 201.3851776  16.5047226
  52.2969055 202.7237091  15.8094082  52.8338776 203.6604156  15.6599331
  51.5687027 202.7152405  14.9983912  51.6275864 202.7858124  17.1725368
  50.7825356 203.4722900  17.1202488  51.1757240 201.8393707  17.4694595
  52.4783821 203.2472382  18.2505493  53.2924156 203.7375183  17.9083824
  52.2375183 203.1743927  19.5335312  51.1722946 202.6597290  20.0452061
  50.4098167 202.2762299  19.5051632  51.0263977 202.5980988  21.0427132
  53.1558533 203.6100464  20.3646526  54.0731087 203.7881012  19.9811954
  52.9178009 203.6100616  21.3461971  55.0427971 200.3690338  14.0845251
  55.3259544 199.4911957  14.8769188  55.6696091 200.4544678  12.8828621
  55.4039879 201.2045135  12.2607765  56.5429382 199.4491730  12.2702732
  56.0210991 198.5170135  12.4867992  56.4834480 199.5889740  10.7120304
  55.4320793 199.6133270  10.4254417  57.0342140 200.4269867  10.2848148
  56.9295273 198.3606567   9.9176054  58.2150726 197.9574585   9.5635729
  58.0953865 196.8076019   8.8426847  58.8163605 196.2229156   8.2906694
  56.7711296 196.4550018   8.7741938  56.4481583 195.6575775   8.2451525
  56.0468636 197.4655914   9.3644037  54.9721794 197.5599213   9.3137913
  57.8527565 199.2336578  12.9706850  58.3148003 200.0450439  13.8271646
  58.5162430 198.1494598  12.6549721  58.1852913 197.6556549  11.8384457
  59.7056961 197.6396790  13.2953396  59.5701141 197.7471466  14.3715219
  59.8243980 196.1012726  13.0557089  60.6624069 195.7196808  13.6390085
  58.5554771 195.4078217  13.5315371  57.6156845 195.6952362  13.0600710
  58.7577362 194.3411102  13.4349737  58.4939423 195.6298981  14.5968971
  60.0995598 195.8320465  11.5920544  59.1764755 196.1000824  11.0780773
  60.8077583 196.5593414  11.1950588  60.5876770 194.4443054  11.2680178
  61.3310356 194.4650879  10.4710913  60.9935913 194.0150299  12.1840143
  59.7760124 193.7833557  10.9639549  61.0140228 198.4223328  12.9975281
  61.0275536 199.1995239  12.0461693  62.1978493 198.3539124  13.6679077
  62.8507805 198.9519043  13.1819286  62.8424263 197.3157196  14.5021276
  63.8067589 197.7844086  14.6983118  62.2166557 197.2196655  15.9406776
  61.2880287 196.6533661  15.8695364  62.9003906 196.6837769  16.5990238
  61.8968010 198.5870667  16.6352158  62.8851776 199.4994049  17.0158100
  63.9373436 199.2679291  17.0917263  62.6016846 200.7830353  17.5067844
  63.3821297 201.4722595  17.7936268  61.2810593 201.1754761  17.5500240
  61.0577087 202.1659698  17.9180336  60.2256813 200.2739563  17.2170010
  59.1722450 200.4958496  17.3032112  60.5453644 198.9425964  16.8346691
  59.7195549 198.3017426  16.5631237  63.2263603 195.9902954  13.7528324
  63.6141663 196.0556641  12.6022348  63.2255783 194.7485657  14.3304710
  62.4425888 194.2595215  15.4202604  61.4239845 194.6422729  15.3566952
  62.8556213 194.4083252  16.4179382  62.2664680 192.7255402  15.1910925
  61.4278603 192.4506836  14.5513287  62.0779381 192.2088165  16.1321354
  63.6153526 192.4457245  14.4778147  63.4151192 191.7208557  13.6887741
  64.3296814 192.0310516  15.1890697  64.3003616 193.8059998  14.0883789
  65.0674744 194.0995483  14.8049440  65.0857697 193.7697754  12.7003307
  64.4904938 193.5920258  11.6368418  66.4084854 193.5475006  12.6597080
  66.6765442 193.3667755  11.7028446  67.4353638 193.9575500  13.6266565
  68.4019241 193.9562225  13.1228151  67.6777573 192.8709717  14.7331915
  68.4439163 193.1824341  15.4431887  66.7465439 192.7877808  15.2935677
  68.0060425 191.6035919  14.1332989  68.9464340 191.5569305  13.9459705
  67.3466339 195.3647766  14.2839108  66.4504395 196.1255646  13.9165001
  68.3120651 195.7820129  15.1109877  69.1180420 195.2112274  15.3223829
  68.3321991 197.1796112  15.5965509  67.9906769 197.7503815  14.7330122
  67.1641617 197.4639740  16.6137028  66.3431168 196.9007874  16.1700840
  67.5155716 196.9500580  17.5084095  66.8574753 198.8383636  16.9198112
  66.9227219 198.9450989  17.8716259  69.6793060 197.8103333  16.0986443
  69.7243881 198.3709106  17.1833134  70.8100357 197.7407837  15.4144001
  71.5140839 198.2714539  15.9071627  71.3238907 196.9408722  14.2812119
  72.3760452 197.2067413  14.1793413  70.5348816 197.2821808  13.0218210
  69.5864182 196.7473602  13.0717506  70.2829514 198.3415680  12.9734278
  71.3198853 196.8110657  11.7155552  71.4936829 195.7461700  11.8701649
  70.6340103 196.9889069  10.8872738  72.7026825 197.4827423  11.4626570
  73.3937454 197.3230896  12.2903357  73.2326279 197.0361176  10.6213522
  72.5529327 198.9789581  11.3009558  71.9030457 199.3833313  12.0769892
  73.5098877 199.4832153  11.4354115  72.1554031 199.3339539   9.9054947
  71.2073746 199.0707703   9.6773100  72.3152924 200.3204193   9.7591105
  72.7621307 198.9791718   9.1801548  71.4665451 195.4454803  14.7793379
  70.6703873 194.5706787  14.4348125  72.4396515 195.1019897  15.6862259
  72.2707367 194.0581665  16.6953201  72.2524643 193.0840454  16.2065887
  71.3806915 194.2719421  17.2871265  73.3966751 194.0434265  17.6467953
  73.7062988 193.0453339  17.9566765  73.3014832 194.7729797  18.4510384
  74.4880905 194.6580658  16.7148666  75.2635727 195.1710205  17.2837238
  74.9547348 193.8337097  16.1756210  73.8010635 195.6309509  15.7574215
  74.2687759 195.5768280  14.7743568  73.9947968 197.0088348  16.4411621
  73.3219604 197.3683167  17.4093914  75.0441742 197.7101440  16.0316162
  75.5399399 197.2483673  15.2825556  75.7119980 198.8899078  16.6233864
  76.5821686 199.1325989  16.0134621  74.7791519 200.0955353  16.5947094
  74.5107803 200.2314911  15.5470467  73.8926163 199.7153320  17.1022511
  75.2855072 201.4542084  17.2544403  75.3275909 201.3281403  18.3363056
  76.3139420 201.6920319  16.9826527  74.4561310 202.6335297  16.8465347
  73.3901062 202.4061584  16.8452950  74.7308044 203.4581146  17.5043373
  74.7448654 203.0595856  15.4177284  75.8026581 202.9472504  15.1799278
  74.2278061 202.2863007  14.8495865  74.1473312 204.4239197  15.1482096
  74.2525940 205.0857849  15.9038258  74.5338135 204.8216248  14.3040686
  73.1842957 204.3762054  14.8475895  76.4121094 198.7349396  17.9683266
  77.4445572 199.3704529  18.2784176  76.0263596 197.6913605  18.7261467
  75.1227798 197.3461304  18.4355373  76.5377960 197.2762299  20.0368176
  77.3669128 197.9278259  20.3126507  75.5450974 197.4964142  21.1807117
  76.0543823 197.1150360  22.0657406  75.3040924 199.0207977  21.3809223
  74.5371780 199.4736328  20.7525158  74.9308929 199.0944824  22.4023876
  76.1804504 199.6604462  21.2763615  74.1502609 196.7708435  21.0228291
  74.3140259 195.7606201  20.6477070  73.5996323 196.7954102  21.9632034
  73.5161362 197.4103699  20.4088345  77.1445160 195.8569641  20.1310291
  77.7554092 195.5253143  21.1677876  77.1764832 195.0624237  19.0571461
  76.9962616 195.5064697  18.1680737  77.5916595 193.6725616  19.1531715
  77.4690475 193.1757660  18.1907539  79.1149750 193.4265900  19.3865795
  79.4308701 193.4291382  20.4297981  79.3363953 192.4454956  18.9664230
  80.1307907 194.2631531  18.6912575  80.9074707 195.1795654  19.3406372
  80.8417282 195.3573303  20.4038754  81.6986542 195.8280334  18.4176865
  82.2945709 196.6198273  18.6127396  81.6613235 195.1538544  17.2160892
  82.2556000 195.4305267  15.9259558  82.9874420 196.2200470  15.8395653
  81.9015884 194.6447449  14.7920818  82.4968643 194.7218018  13.8942432
  80.9755249 193.6176300  14.9602165  80.8723831 192.8836670  14.1746845
  80.3211060 193.3726807  16.1810856  79.6302032 192.5648956  16.3721733
  80.5566940 194.1896667  17.2980251  76.6791077 192.7974396  20.1266460
  75.4867477 192.7820435  19.8888531  77.2429352 192.1217346  21.1340828
  78.2365341 192.2986450  21.1737194  76.6834717 191.3663635  22.2110519
  77.6112900 191.0291748  22.6731739  75.8756104 190.0682678  21.7858791
  75.2468719 189.7637939  22.6225910  75.2283936 190.3890533  20.9696007
  76.9270172 189.0313568  21.4831028  76.4835358 188.2824554  20.8269367
  77.7316437 189.3630066  20.8268375  77.4938049 188.2940826  22.7396851
  77.5065002 188.7784882  23.8111343  77.9805756 187.0657959  22.5172081
  78.3178101 186.5143280  23.2932529  77.9233246 186.7006989  21.5772476
  75.9746094 192.1354218  23.3288460  75.2354889 193.1193237  23.1629238
  76.2084808 191.6201019  24.5471821  76.8155518 190.8137207  24.5836487
  75.8839645 192.0463409  25.9203396  75.2652817 191.2576752  26.3485146
  77.2049255 191.9913635  26.7393990  77.2038269 192.6543579  27.6045856
  77.3480988 190.9323120  26.9538631  78.4637909 192.5690918  26.0396729
  78.5021820 193.7616577  25.7274075  79.4271545 191.7901764  25.8559723
  75.1667480 193.4098053  26.2052364  75.4889832 194.4363251  25.6258469
  74.2394333 193.4140320  27.1833305  74.1786118 192.5073090  27.6240616
  73.5508957 194.5623016  27.7559814  72.6804352 194.2239380  28.3180389
  74.3715744 195.2197113  28.9488010  73.8542557 196.1041870  29.3205090
  74.4878845 194.5388336  29.7920036  75.8131714 195.6121216  28.6653748
  76.3149261 195.3978271  29.6090012  76.2830353 195.0483856  27.8594322
  76.0575714 197.1414642  28.3254566  75.2747574 197.7677765  28.7532692
  76.9530411 197.4893341  28.8404598  76.4266968 197.4195251  26.8958626
  75.8583298 198.0427551  26.3402939  77.5686188 197.2240753  26.2934895
  78.6221619 196.5581512  26.7772579  78.4712982 196.0744019  27.6509438
  79.2736664 196.1033325  26.1537266  77.6245270 197.7221222  25.0763760
  78.4710083 197.5805054  24.5439091  76.8499985 198.1673584  24.6052418
  72.8486404 195.4536438  26.7994766  72.4507675 194.8977051  25.7095013
  72.5870438 196.6924744  27.0493469  72.8346634 196.9058685  28.0049858
  71.8235397 197.7067108  26.3377304  71.8248978 198.6073303  26.9517212
  72.5541229 198.0120697  25.0453434  72.9196243 197.1201630  24.5364227
  71.9203339 198.5386505  24.3318100  73.4285965 198.6287079  25.2530613
  70.3270187 197.4250488  26.0204983  69.4128265 198.1716766  26.3758698
  70.0109100 196.4058533  25.2268200  70.7755051 195.9072723  24.7944870
  68.6385117 196.1475220  24.6907406  68.2457581 197.1304169  24.4303741
  68.7891541 195.3864899  23.3743572  67.7725143 195.1508179  23.0597038
  69.1590271 196.1099243  22.6477623  69.6725540 194.1403961  23.4380074
  69.1728439 192.9355621  23.9958439  68.2909546 192.9122162  24.6188469
  69.8950806 191.7787476  23.8324738  69.5623169 190.8565826  24.2855549
  71.0434494 191.8129730  23.0015163  71.6002731 190.9143524  22.7804909
  71.5045319 193.0267944  22.4071579  72.3522720 192.9967804  21.7387028
  70.7985153 194.1955414  22.6381798  71.0379791 195.1471558  22.1870785
  67.6084290 195.6003876  25.6334362  66.4842529 195.2597504  25.2661285
  67.9232254 195.5226135  26.8898754  68.8886642 195.6929321  27.1328335
  67.0740585 195.0410767  27.9716091  66.7601242 194.0075073  27.8256683
  67.8870697 195.1924133  29.2628078  68.2433548 196.2133636  29.3999786
  67.3039932 194.8467407  30.1164112  69.2281799 194.3110352  29.3847218
  68.9084396 193.3840790  29.8607674  69.6185837 194.1202240  28.3850803
  70.2426682 195.1606903  30.2572956  71.1640549 194.5818329  30.3211060
  70.4786682 196.1312714  29.8209705  69.7175827 195.3977203  31.5989552
  69.5247803 194.4978943  32.0151520  69.7194595 196.5119781  32.2532921
  70.0338364 197.6537323  31.7372437  70.2630615 197.7293091  30.7565060
  69.9387894 198.5146484  32.2567635  69.2862549 196.5686798  33.5099068
  68.8556442 195.7782288  33.9679909  69.2332382 197.4022217  34.0778084
  65.7352600 195.7882385  28.0369110  64.7151184 195.1549683  27.8552055
  65.7858734 197.1302185  28.3077946  66.7258301 197.4956818  28.3626995
  64.5423203 197.8902283  28.3290310  63.8854370 197.5262299  29.1190434
  64.9956131 199.3532410  28.6787033  65.8417053 199.7152100  28.0945778
  64.1044464 199.9423828  28.4623013  65.4533005 199.5049286  30.1904449
  64.7070923 199.0226135  30.8218269  66.3052597 198.8555603  30.3919163
  65.7395706 200.9049988  30.7449436  65.8516541 201.8423004  29.9836712
  66.0113449 201.0187988  32.0347366  66.2756348 201.9241028  32.3962440
  65.9891663 200.1798248  32.5966263  63.7124634 197.8582306  27.0159569
  62.4878197 198.0270844  27.0013237  64.3374939 197.6181335  25.8419228
  65.3470306 197.5933380  25.8601894  63.6908951 197.5119324  24.5420380
  62.9498901 198.3100281  24.4968185  64.6441574 197.6747894  23.3949432
  65.0224686 198.6953125  23.4542980  65.4447403 196.9465942  23.5249233
  63.9851723 197.4111938  22.0357494  63.2793121 198.3094635  21.2732315
  62.9827080 199.2848511  21.6296425  62.7634087 197.6829376  20.1678982
  62.2686958 198.2065887  19.4599781  63.1678085 196.3731689  20.0813293
  62.8934860 195.3352509  19.1580448  62.1828079 195.5330200  18.3692303
  63.5188026 194.0917511  19.3157272  63.3518944 193.3629456  18.5363693
  64.3174133 193.8695526  20.4558048  64.8354721 192.9313049  20.5888023
  64.6055069 194.8674011  21.4029427  65.1292725 194.6772766  22.3281002
  63.9936676 196.1722107  21.2739162  62.9131126 196.2240448  24.4164410
  61.8831329 196.2214508  23.8080997  63.3101196 195.1513062  25.1309414
  64.2606125 195.1639709  25.4722672  62.4921494 193.9018707  25.0435677
  62.3033333 193.8268585  23.9726696  63.2939186 192.6310425  25.4802570
  63.9734802 192.9903870  26.2530231  62.5688553 191.9089050  25.8556328
  63.9146919 192.0272675  24.3140430  65.2427673 191.9479370  24.0556297
  66.0000763 192.4325562  24.6540012  65.4697647 191.1909790  22.9242134
  66.3820953 191.0102081  22.5304050  64.2969513 190.7806549  22.3594761
  63.9139595 189.9475403  21.2695084  64.6492081 189.7491150  20.5037174
  62.5449486 189.5229492  21.1461029  62.2256012 188.8224182  20.3886757
  61.6171379 189.9832458  21.9879227  60.5982704 189.6647034  21.8241081
  61.9382973 190.7547913  23.1241245  61.1936836 190.9025726  23.8923073
  63.2760696 191.2246399  23.2568550  61.1534386 194.0145874  25.7506905
  60.1556282 193.4595642  25.1883011  61.0530891 194.8826752  26.7840633
  61.9301033 195.2235413  27.1511402  59.7665710 195.2990265  27.3598061
  59.2022133 194.3823395  27.5309277  59.9383316 195.9547424  28.7537498
  60.5027924 196.8797913  28.6364403  58.9573250 196.1662750  29.1791706
  60.6912384 195.0128174  29.7541981  60.2089691 194.0548553  29.9487114
  61.7456856 194.8675385  29.5193901  60.6382408 195.6492462  31.1674118
  60.7589722 196.8817596  31.3221760  60.7131615 194.8535614  32.2025261
  61.0085335 195.2448578  33.0855598  60.7386131 193.8443604  32.1717682
  58.9334831 196.1946411  26.4131317  57.7282028 195.8990631  26.2077122
  59.5660553 197.1664276  25.8638248  60.5234947 197.2291565  26.1792164
  59.0244904 198.2594604  25.0536213  58.3257561 198.8667908  25.6289558
  60.1100044 199.2020416  24.7191830  60.6925278 199.4205170  25.6141891
  60.7601051 198.7365417  23.9783878  59.6997948 200.5602875  24.0738277
  59.1368217 200.3671112  23.1606770  59.0837784 201.1336365  24.7665730
  60.9468384 201.3774414  23.6581345  61.6635666 201.3650055  24.4792614
  61.3995895 200.9024506  22.7877922  60.7033195 202.8873444  23.3506641
  61.6489449 203.3340149  23.0434418  59.9515038 203.0245361  22.5734520
  60.2856407 203.7048035  24.5147972  60.8729286 203.5542755  25.3225937
  60.3640060 204.6837769  24.2790623  59.3613052 203.4499512  24.8322182
  58.4249878 197.6843262  23.7755623  57.3627319 198.1304474  23.3369446
  59.0983353 196.6965027  23.1411438  59.9858627 196.4106598  23.5293255
  58.6089745 196.0438232  21.9251003  58.3255615 196.7650452  21.1585293
  59.7669296 195.3477325  21.3443336  60.5577164 196.0336914  21.0406532
  60.1311378 194.6127167  22.0621109  59.4884605 194.3453369  20.1890736
  59.2149582 194.8158875  18.8928471  59.2301598 195.8770752  18.6927261
  59.0573845 193.9818573  17.7865295  59.0368767 194.3938904  16.7884235
  58.9634895 192.5630035  17.9763069  58.6315269 191.7568207  16.9610596
  58.6908569 192.1186829  16.0738506  59.1083450 192.0820465  19.2815533
  59.0267181 191.0314484  19.5181179  59.3453140 192.9603882  20.3381901
  59.4529839 192.5158234  21.3165436  57.3848724 195.1070251  22.1594162
  56.3628807 195.3416595  21.5201569  57.4040451 194.2901459  23.2311954
  58.2592278 194.3132629  23.7680626  56.2140312 193.6106110  23.6971226
  55.9485474 192.8531952  22.9596004  56.6089439 192.7981415  24.9713268
  57.2083931 191.9469299  24.6485310  57.2514763 193.3934479  25.6200752
  55.4128876 192.2916412  25.8566532  54.7845268 193.1497650  26.0951424
  54.7954445 191.6130524  25.2681046  56.0216599 191.6456604  27.0768509
  55.9001579 190.4455261  27.1739311  56.4350433 192.4072571  28.0317822
  56.5626488 192.0254059  28.9580669  56.2797508 193.3975220  27.9078674
  55.0739861 194.5821381  24.0205975  53.9386444 194.2755127  23.5700169
  55.3098946 195.6328125  24.8177586  56.1926041 195.7027435  25.3035927
  54.2452736 196.7169495  25.0199776  53.3840027 196.1842957  25.4232006
  54.7538261 197.7518463  26.0730667  55.1755905 197.1330261  26.8650684
  55.5067673 198.4181366  25.6520615  53.6652260 198.6893768  26.6413689
  53.3587379 199.3141479  25.8024178  52.8381577 198.1792145  27.1351223
  54.2892380 199.6905365  27.6723022  54.6517563 199.1431427  28.5423851
  55.0920563 200.2942657  27.2491283  53.2604141 200.6465454  28.1868496
  53.2882042 201.4513702  27.4522781  52.2425232 200.2588806  28.2283192
  53.6120071 201.1350403  29.5510368  54.5704269 201.4517212  29.5156784
  52.9962158 201.8587646  29.8932495  53.6323318 200.4368286  30.2805500
  53.7472496 197.3834076  23.6956024  52.6665268 197.9383240  23.7235851
  54.5627632 197.4485779  22.5767899  55.5187454 197.1885834  22.7732639
  54.1554451 198.0649261  21.3219700  53.4787407 198.8901978  21.5435562
  55.4661942 198.7005310  20.7520828  55.8200951 199.2742004  21.6086826
  56.2447548 197.9706573  20.5302143  55.1105690 199.5318604  19.5294037
  54.7397614 198.8896332  18.7305698  54.2747803 200.1897125  19.7677517
  56.3058205 200.3808441  18.9461994  57.0951614 199.6967316  18.6346874
  55.9579620 200.9514160  18.0850697  56.7728195 201.3252716  19.9440517
  56.5565071 201.0698853  20.8969898  57.4233360 202.4555206  19.7776051
  57.9891968 202.7403564  18.5964050  57.8299026 202.1639404  17.7824841
  58.3011589 203.6762238  18.3797493  57.5127182 203.3587799  20.7627201
  57.0249596 203.3024445  21.6453400  58.2479973 204.0500488  20.7223797
  53.4492531 197.1532288  20.3340530  52.3761940 197.5609741  19.8032207
  54.0752945 195.9816895  20.1584988  54.9860535 195.7837067  20.5476227
  53.5938950 195.0049744  19.2154751  53.4464645 195.5081635  18.2598801
  54.7428093 193.9972839  18.9295712  55.6600914 194.5170898  18.6529827
  54.9979210 193.5287933  19.8801117  54.3546486 192.8746948  17.9589291
  53.6500092 192.1791992  18.4148540  53.8067360 193.2514496  17.0952377
  55.5902405 192.1184692  17.4422588  56.2995987 192.8541107  17.0631008
  56.0126762 191.5440216  18.2666683  55.2553902 191.0724945  16.3897438
  56.0704803 190.3493195  16.4170265  54.3298531 190.5559540  16.6440163
  55.2225075 191.6125336  15.0040884  56.1459274 191.9082184  14.7212982
  54.8987579 190.9084473  14.3563566  54.6294708 192.4283447  14.9504776
  52.3180542 194.3447876  19.6599846  51.5434265 193.8530273  18.8760033
  52.1265411 194.2749176  20.9740181  52.8809509 194.5350189  21.5931416
  50.9373512 193.6276703  21.6089916  50.3006020 193.3402710  20.7723045
  51.3724098 192.4211578  22.5320759  52.0518913 192.8115845  23.2896824
  50.4278870 192.0155182  22.8946056  52.0850334 191.4127502  21.6911716
  51.4932709 190.6186371  20.7093964  50.4170418 190.6209106  20.6192207
  52.2394829 189.7313385  19.8800869  51.8055496 189.0665741  19.1478329
  53.6145134 189.5829620  20.0928040  54.1765976 188.9357605  19.4358444
  54.2214127 190.3831024  21.0709324  55.2899628 190.4149628  21.2245331
  53.4758644 191.2899628  21.7504139  54.0126152 191.9225159  22.4419155
  50.0075226 194.6023712  22.3569832  49.2203369 194.1411591  23.1143055
  50.0558243 195.9170532  22.0826187  50.7566910 196.2194672  21.4212265
  49.1158295 196.9048615  22.6778603  49.2222672 196.8442688  23.7609558
  49.4789886 198.3079987  22.1077633  50.4930496 198.5667267  22.4124508
  49.4462013 198.2268677  21.0212803  48.5831223 199.4932098  22.3563061
  48.9009743 200.5324554  23.2099495  47.8180008 201.2997742  23.1987438
  47.7101822 202.2046051  23.7784443  46.8767815 200.8166351  22.3794918
  45.9247322 201.1538239  22.3772888  47.3579941 199.6598358  21.7895241
  46.9038506 199.0653229  21.0106068  47.6442871 196.5360870  22.3234520
  46.7172241 196.7795410  23.1335640  47.3963928 195.9116516  21.1873894
  48.1868744 195.9072113  20.5587254  46.0511703 195.5413208  20.7240486
  45.3650513 196.3568878  20.9525032  46.0620232 195.5124664  19.1932068
  46.7925682 194.7638092  18.8867569  45.1054268 195.1406097  18.8261127
  46.6079674 197.1128998  18.5555344  45.4170723 197.6699371  18.3181229
  45.4297905 194.2602234  21.2862453  44.2459259 193.9291077  21.1937370
  46.1960983 193.6368713  22.1535740  47.1394157 193.9962921  22.1862507
  45.7515488 192.6324921  23.1371975  45.3739624 191.7842102  22.5662880
  47.0025902 192.0985260  23.8257828  47.4002457 192.9272919  24.4115467
  46.7245369 191.4449310  24.6525898  47.6400108 191.6108398  23.0882359
  44.7178917 193.1669159  24.1235237  43.9584236 192.3611603  24.6891689
  44.5029526 194.4724121  24.2402954  45.1282425 195.1338959  23.8026104
  43.5367393 195.1030579  25.1513863  43.6887856 194.6925049  26.1495991
  43.8010597 196.6203766  25.2224960  43.2360725 197.1387177  25.9972248
  44.8707199 196.7519073  25.3856716  43.4915886 197.2241669  23.8972855
  43.7629623 198.1443329  23.9324913  42.1170349 194.8737335  24.6982002
  41.2119942 194.8560944  25.5235271  41.8225441 194.6658020  23.4078026
  42.6386642 194.6789246  22.8129196  40.5398674 194.3625793  22.8231831
  39.7530098 194.9891968  23.2430820  40.4950294 194.5495605  21.3089218
  40.9677086 193.6788025  20.8545418  39.4990082 194.6020660  20.8692799
  41.2182045 195.7875824  20.7503643  42.2652550 195.7088470  21.0429058
  41.1382065 195.8739929  19.2126427  40.1249695 195.7774506  18.8226070
  41.5272217 196.8351288  18.8765430  41.8077774 195.0654755  18.9192295
  40.5906372 197.0805969  21.3097363  40.7887077 196.9761200  22.3764877
  41.1726532 197.9021454  20.8921108  39.5048485 197.1097717  21.2185688
  40.0406189 192.9440460  23.1587887  38.8197556 192.6738281  23.3289661
  41.0119591 192.0363922  23.2618103  41.9537544 192.3952789  23.1959820
  40.9582291 190.6047516  23.5928631  39.9749069 190.2881317  23.2451038
  41.9077530 189.7040100  22.8837795  41.5693588 188.6962433  23.1246147
  41.9507370 189.8102112  21.3837986  42.3613739 190.7612610  21.0447235
  42.4610214 188.9696655  20.9134865  40.9354324 189.6866302  21.0069847
  43.2333450 189.8355865  23.3919983  43.6890602 189.0644379  23.0466785
  41.0319023 190.3573914  25.1246510  41.3005409 191.2568207  25.9162998
  40.7101097 189.1547546  25.5878239  40.4537506 188.4273987  24.9356480
  40.6168137 188.8189087  27.0377617  40.2489777 189.7023926  27.5595436
  39.6058846 187.7254181  27.1698418  39.5172729 187.3903351  28.2032681
  38.6305008 188.0679169  26.8242741  39.9505157 186.6180267  26.3440495
  40.5841141 186.1309814  26.8759766  41.9636269 188.4982452  27.7151947
  41.9913063 188.0802460  28.8800945  43.0413895 188.7057953  27.0589581
  42.9958572 189.3282471  26.2648602  44.4265556 188.3329315  27.4705505
  44.4044838 187.8195343  28.4318218  45.0242653 187.2739563  26.5424423
  45.2188263 187.6981354  25.5573978  46.0408440 187.0037842  26.8282394
  44.1297760 186.0920563  26.2798157  43.4726410 185.8028717  25.1418571
  43.5517807 186.3269653  24.2008648  42.7502289 184.5829773  25.2377510
  42.1004944 184.2285004  24.5505161  42.8545456 184.0831757  26.5427647
  42.3333969 182.9263458  27.1527748  41.5310898 182.3515167  26.7142906
  42.7927818 182.5824432  28.4475899  42.3482285 181.6780701  28.8360348
  43.6261292 183.4223480  29.1759014  43.9458961 183.1747437  30.1773243
  44.0279312 184.6615448  28.5764256  44.6261063 185.2982788  29.2113819
  43.7120705 185.0410004  27.2514782  45.4503212 189.4202576  27.5795174
  45.4859200 190.2386169  26.6788483  46.3419304 189.4474030  28.5740204
  46.5288849 188.4052887  29.6224499  46.6273766 187.4144287  29.1790695
  45.6412163 188.4198761  30.2548523  47.7704620 188.7560120  30.3827267
  48.5600586 188.1937103  29.8842659  47.7205734 188.4799957  31.4360199
  47.9519806 190.2487335  30.1521378  49.0007401 190.5430145  30.1920547
  47.2773972 190.8253021  30.7850742  47.3282471 190.4707642  28.7540398
  46.8563728 191.4532928  28.7461586  48.3900146 190.3705139  27.6670017
  48.7537003 189.2731323  27.1974983  49.1419868 191.5090790  27.3784504
  48.8762054 192.8411560  27.9549923  49.3317032 192.8442993  28.9452515
  47.8084068 193.0249481  28.0738945  49.5015297 193.8231201  27.0188580
  49.7934036 194.7145233  27.5741272  48.8174820 194.1707764  26.2447052
  50.6756210 193.0282898  26.4710274  51.5200729 193.0690155  27.1590233
  51.1077194 193.3977966  25.5410538  50.1146088 191.5631256  26.2824230
  49.5917931 191.4326019  25.3349380  51.2291336 190.4681091  26.3165894
  51.5370560 189.8661194  25.2787266  51.7193069 190.0877838  27.4788189
  51.4500771 190.5508270  28.3351002  52.7132187 189.0406189  27.6939926
  53.4884682 189.4439392  27.0425186  53.2353363 189.0857544  29.1151924
  53.9783974 188.2932892  29.2043705  53.8558617 189.9750519  29.2256927
  52.3276711 188.8816223  30.2561169  51.8514977 189.8430786  31.0920296
  52.0156937 190.9054871  30.9883289  50.9742279 189.3187256  32.0128593
  50.4151573 189.8112183  32.6947632  50.8897438 187.9404755  31.8323059
  50.0836945 186.9295959  32.3984032  49.3766251 187.1453247  33.1857491
  50.1480713 185.5982361  31.9825230  49.5472145 184.8733368  32.5115700
  51.0813446 185.2311401  31.0028896  51.1327209 184.2433472  30.5692673
  51.8958321 186.2083740  30.4059124  52.4836884 185.9787445  29.5294971
  51.7596474 187.6070251  30.7668095  52.3607254 187.6214905  27.2694263
  53.2609138 186.8849487  26.8099594  51.0794945 187.1758118  27.2400017
  50.3205338 187.8226166  27.4003811  50.7004356 185.8707275  26.7176552
  51.3195229 185.2016449  27.3152771  49.2254753 185.5413361  27.0059643
  48.9959450 185.6472015  28.0662518  48.7399101 186.2987213  26.3905773
  48.7742081 184.1019745  26.5442410  48.9714394 184.0025940  25.4768486
  49.3567734 182.9563599  27.3838520  49.2158585 183.1157074  28.4528923
  48.9845810 181.9570465  27.1580963  50.4305763 182.8753357  27.2151012
  47.2493591 184.0070648  26.5755367  46.9311218 184.8188477  25.9214611
  46.9097824 183.0634766  26.1484165  46.9307709 184.1860962  27.6024456
  51.1045380 185.6561432  25.2329350  51.6547585 184.6440735  24.8824406
  50.7679901 186.6399994  24.4116344  50.4499550 187.5198364  24.7922039
  51.1121979 186.5821838  22.9923992  50.5878487 185.6606140  22.7396660
  50.4073601 187.7278442  22.2592983  50.7390137 188.6782379  22.6774731
  50.7615623 187.7343750  21.2284737  48.8685112 187.6399689  22.1947422
  48.2060890 186.6064453  21.5122280  48.8434639 185.8587952  21.0637131
  46.7887955 186.5038300  21.5241528  46.3407516 185.6841125  20.9821835
  46.0683136 187.4633026  22.2310238  44.7354202 187.4849091  22.2940617
  44.3819084 187.0103607  21.5381222  46.7434120 188.5285034  22.8870354
  46.2443924 189.2630615  23.5016880  48.1489868 188.5957642  22.9176884
  48.5569458 189.3752899  23.5440197  52.6193657 186.4859772  22.6817150
  52.9736252 185.7826843  21.7668629  53.4847069 187.0753937  23.5297165
  53.0622139 187.6306763  24.2599640  54.9323006 186.8614807  23.3910580
  55.2984390 187.2614136  22.4454899  55.7239151 187.6089783  24.4338455
  55.4073944 187.2745514  25.4218102  56.7711678 187.4010620  24.2144566
  55.5540962 189.0448151  24.4331017  56.0236855 189.4108429  25.1861706
  55.3969269 185.3785706  23.5274868  56.3773155 184.9793396  22.9526367
  54.6154938 184.5293121  24.1594753  53.7514610 184.8739471  24.5528927
  54.8906212 183.0606079  24.4066296  55.9733772 182.9885559  24.3039131
  54.3149796 182.5640106  25.7634621  53.2379608 182.4888306  25.6135349
  54.7710533 181.5828400  25.8953609  54.5715942 183.3627930  27.0977840
  53.8737106 184.1979828  27.0382538  54.2570457 182.6535339  28.4702206
  55.0727997 181.9474335  28.6253490  54.3701591 183.4989929  29.1488285
  53.2583694 182.2196350  28.4204674  56.0173950 183.9438171  27.2849655
  56.1019363 184.6540222  26.4624214  56.1339760 184.4929657  28.2192841
  56.6604767 183.1072388  27.0117073  54.3371964 182.1888733  23.2611771
  54.5092697 180.9888763  23.2450066  53.8198013 182.8126373  22.2354298
  53.4461021 183.7463531  22.3283501  53.4252930 182.2041321  20.9715405
  53.7800446 181.1764069  20.8936214  51.9054146 182.1696167  20.8641167
  51.5612793 183.1839447  21.0660706  51.5739288 181.7961731  19.8952217
  51.2143631 181.2147217  21.8277817  50.7510948 181.7598572  23.0338039
  50.8433685 182.8240814  23.1929722  50.1600418 180.9520264  23.9647255
  49.7625046 181.3151093  24.9009609  49.8996048 179.5773468  23.7316055
  49.2818375 178.8234253  24.6972160  48.6925507 179.2469025  25.3257103
  50.3656502 178.9847565  22.5301514  50.2338867 177.9283600  22.3482552
  50.9797058 179.8332977  21.5285778  51.1926727 179.4316864  20.5489101
  54.0328407 182.9946289  19.7720051  53.9160843 182.6720734  18.5744362
  54.7096329 184.1113892  19.9899254  54.8039551 184.4212799  20.9465675
  55.3727837 184.9593353  18.9839954  54.6305962 185.2098389  18.2260399
  55.6902390 186.2648621  19.6583672  54.7409554 186.7622528  19.8572826
  56.2705498 186.0776062  20.5618515  56.4889297 187.2133789  18.6705284
  56.4203568 187.0513153  17.4115353  57.4475098 187.8878479  19.1571999
  56.6566849 184.3667755  18.3818016  57.6242867 184.2065125  19.1184444
  56.6744270 183.9651794  17.0776806  55.8523407 184.1090698  16.5088501
  57.8483543 183.3046112  16.4474735  58.0357056 182.3463745  16.9320183
  57.5791969 182.9310150  14.9722853  57.6287689 183.8130951  14.3338566
  58.2999153 182.1492462  14.7325182  56.6149521 182.4437866  14.8275805
  59.1086121 184.1477051  16.5834217  60.2012978 183.6260681  16.6934719
  59.0913086 185.5157928  16.6437378  58.1778450 185.9342041  16.7467861
  60.2632523 186.3406372  16.8742218  61.1329727 185.9691772  16.3322659
  59.9107933 187.7978363  16.4346294  59.0342407 188.1804199  16.9574871
  60.7070770 188.4650269  16.7646389  59.7093201 187.9193726  14.9070559
  58.8638382 187.2529755  14.7363129  59.5114403 188.9593658  14.6474762
  60.9076271 187.4015808  14.0942822  62.0849571 187.4080811  14.4815493
  60.6711540 186.9621582  12.9717455  60.7589951 186.2881927  18.2822590
  61.9806290 186.2057495  18.5469837  59.8534355 186.2982330  19.2925739
  58.9012680 186.6047668  19.1528950  60.3019447 186.1371918  20.6774616
  61.2404633 186.6882324  20.7378635  59.1454964 186.4841156  21.6336937
  58.2787437 185.8318481  21.5269947  59.5553017 186.3249359  23.1397133
  60.5127754 186.8457794  23.1482697  58.8581581 186.7806244  23.8428764
  59.6147194 185.2643433  23.3840389  58.6489143 187.8359833  21.4563580
  58.3928261 187.8680725  20.5317020  60.7820511 184.6709900  20.9646225
  61.7245445 184.4705505  21.6564751  60.0848160 183.7286987  20.3516788
  59.2682648 183.9384155  19.7954731  60.4880104 182.3580475  20.5022030
  60.5671310 182.0280914  21.5380478  59.4228058 181.4907532  19.7347946
  59.2524986 181.9200592  18.7474823  59.9020348 180.5198669  19.6089783
  58.0742645 181.2951508  20.4826374  57.7177887 182.2690735  20.8180447
  56.9743080 180.7881165  19.5303822  57.2898636 179.9276123  18.9404335
  56.1341362 180.4754944  20.1504383  56.4367561 181.4279785  18.8305855
  58.2721977 180.3350220  21.6679707  59.0832672 180.7176361  22.2875519
  57.3826904 180.2687073  22.2944527  58.3647423 179.3328705  21.2493610
  61.8668480 182.0172272  19.8469219  62.4416237 181.1056671  20.3490162
  62.2384834 182.6803436  18.7709618  61.6641006 183.4393311  18.4331284
  63.6008873 182.5860291  18.2366943  63.7737198 181.5114594  18.1772404
  63.7734032 183.2219086  16.8245869  63.3306084 184.2168732  16.7791519
  64.8442688 183.3122101  16.6423969  63.1719437 182.3367920  15.7484369
  63.7540359 181.4191132  15.6640577  62.1487617 182.0811462  16.0238285
  63.1454659 183.0240936  14.0961876  64.9133530 183.1220856  13.6474962
  65.3623734 182.1314240  13.7186022  64.9752121 183.4539795  12.6110983
  65.4758224 183.8076172  14.2813606  64.6363831 183.2003326  19.2233295
  65.7615356 182.7024384  19.3154678  64.2515793 184.3260651  19.7996273
  63.4079475 184.8070068  19.5219765  65.2232132 184.9392395  20.6984959
  66.1600037 185.0641632  20.1554127  64.7298050 186.3592834  21.1244793
  64.6073074 186.9299164  20.2039032  63.8450012 186.1461792  21.7243252
  65.7667923 187.1201935  22.0485554  65.3645020 188.1231842  22.1909523
  65.7473831 186.6404724  23.0271244  67.1761932 187.2198639  21.4462624
  67.2348251 187.4690704  20.2306023  68.1667938 186.9657593  22.1250668
  65.4834900 184.1504669  21.9652805  66.6238556 184.0580444  22.3929005
  64.4847870 183.4310150  22.5897675  63.5578766 183.6355133  22.2446194
  64.8092957 182.5603180  23.7849483  65.2426071 183.1193390  24.6143017
  63.4540482 182.0081482  24.3985577  62.9198952 181.5434113  23.5698166
  63.6454277 181.3295593  25.2298164  62.5453491 183.1667938  24.8842983
  63.0573807 183.6143951  25.7361069  62.4592094 183.9866486  24.1712017
  61.1451378 182.7000885  25.3623199  60.4693985 183.5429077  25.5076675
  60.7562408 182.1297913  24.5187321  61.2963524 181.9909821  26.6171074
  62.2232094 181.9515991  27.0164623  60.2834930 181.3982544  27.2958698
  59.0517426 181.2315826  26.8566284  58.8376350 181.7957916  26.0467358
  58.4301376 180.6341400  27.3827229  60.5756149 180.8027802  28.3672981
  61.5434837 180.7000580  28.6370697  59.8353577 180.3976746  28.9222927
  65.8120041 181.5075684  23.3640480  66.6494217 181.1908112  24.1960278
  65.6947937 180.8978271  22.1348095  64.8092880 181.0603638  21.6770363
  66.5988693 179.8027649  21.7697601  66.8839340 179.1896515  22.6247005
  65.9296646 178.9093323  20.6560078  65.5731812 179.5471649  19.8471832
  66.8593063 177.8170319  20.1338158  67.1513443 177.2914429  21.0429726
  66.1725388 177.1788940  19.5777435  67.7354736 178.2219543  19.6273842
  64.5717926 178.2767792  21.2296352  63.9416809 178.9949799  21.7542934
  64.0164337 177.9125214  20.3653488  64.7779388 177.4109039  21.8588066
  68.0154037 180.4227142  21.3971214  69.0110703 179.8437958  21.8577538
  68.0865555 181.5858307  20.7210407  67.2706146 182.1336975  20.4882603
  69.3560410 182.2590027  20.5181866  70.0120926 181.6264648  19.9201908
  69.2683258 183.5775909  19.7447472  68.5179901 184.1623230  20.2768898
  70.2074356 184.0951385  19.9404850  69.0190811 183.5092316  18.2150993
  69.7618484 182.8251343  17.8047314  68.0339584 183.0935516  18.0033321
  69.0207825 184.9559174  17.7229176  68.1576767 185.5307617  18.0586033
  69.9178772 185.4748535  18.0605965  68.8858032 184.9461975  16.2097721
  69.6151123 184.2395020  15.8138018  67.9160919 184.5567169  15.8998260
  69.1984482 186.3198090  15.6330900  70.1319504 186.6269226  15.8662310
  69.1664429 186.2829285  14.6242704  68.6028976 187.0632172  15.9689045
  70.1687088 182.4957733  21.7972012  71.3031464 182.1060181  21.9025879
  69.5784149 183.1023712  22.8009377  68.6950760 183.5664368  22.6445618
  70.1763535 183.3082123  24.1596088  71.0937805 183.8851776  24.0432587
  69.0953903 184.1506653  24.9812069  68.7645340 184.9325714  24.2976360
  68.2257385 183.5392456  25.2219486  69.7048340 184.8339081  26.2844849
  70.0765686 184.0623627  26.9587650  70.5292892 185.5004883  26.0314007
  68.6431961 185.7526855  27.0172844  69.1314087 186.3634644  27.7766933
  68.3425980 186.4960480  26.2789211  67.5458069 184.9565887  27.5430145
  67.7100143 183.9837799  27.7592602  66.3637543 185.3605499  27.9105606
  65.9371338 186.6234131  27.8344231  66.4962006 187.4027863  27.5180130
  65.0361176 186.9037781  28.1945229  65.4695435 184.5011749  28.3450871
  65.8206863 183.6070099  28.6569691  64.5868149 184.8434448  28.6968613
  70.6373825 182.0230560  24.8407288  71.5173416 182.0471802  25.6661739
  70.1582184 180.8374786  24.4392090  69.3210068 180.7860413  23.8765965
  70.7667465 179.5616150  24.8206768  71.2425156 179.7002258  25.7915211
  69.5627289 178.5818787  25.0098877  68.8764420 178.9585114  25.7683487
  69.0024414 178.4844971  24.0799999  69.8722916 177.1497192  25.3987560
  68.9302750 176.6074982  25.3169823  70.5166397 176.7246857  24.6291733
  70.4576340 177.0693054  26.7951813  69.7488861 176.8941040  27.7453823
  71.7512207 177.0339355  26.8667660  72.1703033 176.9066315  27.7768574
  72.2516174 176.7731934  26.0290794  71.8293839 179.0917969  23.8127747
  72.8905869 178.6119080  24.1995220  71.6664276 179.2415771  22.4676628
  70.8754044 179.7194214  22.0601616  72.6479874 178.8338928  21.4546776
  72.8762436 177.8252563  21.7991772  72.0902939 178.7635498  20.0128460
  71.8849487 179.7739563  19.6592541  72.8863449 178.3065186  19.4250240
  70.8527679 177.9323730  19.7007256  69.9875641 178.1873474  20.3126984
  70.4938583 178.0992889  18.2244530  71.4413910 177.9358978  17.7110443
  69.7203827 177.4561005  17.8047791  70.2375031 179.1445465  18.0516968
  71.1127167 176.4295654  19.9634285  71.1930161 176.3133392  21.0442390
  70.2614517 175.8059998  19.6902752  72.0160751 176.0737762  19.4679871
  74.0278244 179.6169281  21.5473843  75.1015625 179.0876465  21.2120228
  73.9513245 180.8527527  22.0034161  73.0346909 181.2751923  22.0411949
  75.1476135 181.6481934  22.3276520  75.8766556 181.5570679  21.5224857
  74.9136963 183.1121216  22.6700993  73.9930267 183.2210388  23.2433414
  75.7072220 183.4165344  23.3525658  74.8230438 184.0330353  21.4381638
  75.8807526 184.8748016  20.9820766  75.3765793 185.5036011  19.8922234
  75.9500656 186.2156219  19.3172989  74.0577011 185.2072449  19.7705879
  73.4244080 185.6062317  19.0924664  73.6997986 184.2810059  20.7451954
  72.7550888 183.7886047  20.9225655  75.9689560 181.0471497  23.6003399
  77.2026367 181.1608734  23.5782623  75.2859421 180.4229584  24.5101318
  74.2779694 180.4865875  24.5167179  75.9350357 179.6677704  25.5443478
  76.7209854 180.3402405  25.8880711  74.9776993 179.3020477  26.7239304
  74.0642319 178.8994598  26.2862015  75.3976593 178.5114899  27.3458252
  74.5458984 180.5660858  27.4963303  74.6445694 181.4897766  26.9261189
  73.4851608 180.4465027  27.7168808  75.3276825 180.5721741  28.8288746
  75.9329453 181.6163177  29.1562309  75.3056107 179.5670013  29.5628262
  76.5432816 178.4376984  24.8983459  77.7287369 178.2256317  25.2203007
  75.9317780 177.6826019  24.0004997  75.0393677 177.9701538  23.6249866
  76.4692993 176.5152283  23.2885246  76.9450150 175.9519196  24.0913258
  75.3980865 175.6791077  22.5687866  74.8325882 176.3146667  21.8873310
  75.9719315 174.9544067  21.9911938  74.4705734 174.9231720  23.4703331
  74.6853180 174.8048553  24.7964611  75.5320663 175.1990356  25.3387108
  73.6423416 174.1326447  25.3781509  73.5140762 174.0527496  26.3767834
  72.7905579 173.6557770  24.4037991  71.6197891 172.8453064  24.4074345
  71.2745590 172.4528961  25.3525429  70.8954163 172.6283722  23.2194214
  69.9107132 172.1847992  23.2194691  71.3867035 173.1674042  21.9885559
  70.8736191 173.0002747  21.0530262  72.5474014 173.9297943  22.0184193
  72.9170380 174.3196869  21.0815277  73.2248764 174.2918549  23.2156582
  77.5953674 176.9067841  22.3189011  78.5351105 176.1211395  22.1500263
  77.6664352 178.1135712  21.7523994  76.8685608 178.7026062  21.9435501
  78.6790237 178.6100922  20.8005886  79.5682678 177.9883881  20.9046516
  78.1647263 178.4685669  19.3751450  77.6477432 177.5099792  19.4194031
  77.4452362 179.2488556  19.1270046  79.2646484 178.4519196  18.2999306
  80.3867798 178.9264221  18.5324173  79.0125351 177.9234619  17.2034874
  79.1174011 179.9915009  21.1774712  78.4258575 180.9254913  20.8121567
  80.2239304 180.1215973  21.9601212  80.7794495 179.3033600  22.1650543
  80.7596588 181.4255524  22.4943447  79.9812164 181.9523773  23.0462379
  81.8535767 181.1631317  23.5500603  82.7026443 180.6771851  23.0693951
  82.0821838 182.1671753  23.9074821  81.4049835 180.2637634  24.7251301
  82.0162506 180.6135864  25.5570431  80.3350067 180.3918457  24.8889618
  81.7404556 178.7851715  24.4923382  81.4467773 178.2481384  23.3969460
  82.1448517 178.0769653  25.4556351  81.2561035 182.4132690  21.4058266
  81.5294647 183.5618896  21.6769066  81.4932098 181.9431458  20.1714020
  81.1863937 181.0061035  19.9524689  82.0627747 182.6992798  19.0792351
  82.3997574 183.6404877  19.5135803  83.3939209 182.0573883  18.5323925
  83.3714752 181.0164032  18.8548069  83.4278717 182.2205048  17.4552021
  84.6434326 182.6330719  19.2003918  85.2656937 182.0615234  20.1059055
  85.1145248 183.7296906  18.6314602  85.9705429 184.0782623  19.0386734
  84.6354752 184.2662964  17.9224720  81.0643082 182.9868317  17.8883667
  81.4425278 183.5122070  16.8412971  79.8262482 182.3858185  17.9743233
  79.6613541 181.8567810  18.8187351  78.8189316 182.4197083  16.8812504
  79.3189774 182.0660858  15.9795828  77.7135010 181.4160156  17.2123642
  78.1924820 180.4443054  17.3326530  77.3541183 181.6887054  18.2046280
  76.5270767 181.3142548  16.1721573  76.9527054 181.6811981  15.2381954
  75.9375458 179.9326324  16.1645985  75.4851303 179.7657013  17.1421261
  75.2458420 179.9402618  15.3222256  76.6516342 179.1268768  15.9944897
  75.3583755 182.2815094  16.5379238  75.6201019 183.3382263  16.5922890
  74.6521759 182.2674866  15.7077484  74.7877655 182.0932312  17.4473457
  78.3684998 183.8507843  16.6201134  77.8257523 184.5294952  17.4848309
  78.4773483 184.3057098  15.3794403  79.0452499 183.8051605  14.7108259
  77.9008331 185.5149231  14.8192396  77.5869980 186.1612244  15.6389475
  79.0622253 186.1174927  13.9822750  79.4281464 185.3645935  13.2841768
  78.6167679 186.9255524  13.4019985  80.1746902 186.6063690  14.8736019
  79.7493896 187.2991791  15.5997124  80.7057800 185.8357697  15.4323769
  81.2744064 187.3211823  13.9713812  82.2136078 187.4840393  14.5000458
  81.5696716 186.5683289  13.2405443  80.9210892 188.6491852  13.2913370
  81.7924194 189.0774078  12.7958403  80.1782303 188.5715485  12.4974689
  80.4004898 189.6912994  14.2156267  81.1296768 190.3154907  14.5299110
  79.6160812 190.2119598  13.8499498  80.0570984 189.1963196  15.0262985
  76.5994873 185.2335358  14.1011267  76.6128693 184.2322083  13.3902140
  75.5323792 186.0593262  14.2607965  75.6367264 186.8649597  14.8609390
  74.1382065 185.7711334  13.8659210  73.8377991 184.9540863  14.5218964
  73.2409515 186.9817200  14.2528191  73.7258224 187.9183044  13.9774714
  72.3100662 186.8020020  13.7149830  72.9197083 187.0626984  15.8158407
  73.7568207 186.6605988  16.6509457  71.7299194 187.3527985  16.1172619
  73.9880829 185.4040985  12.3633461  73.1429367 184.5119171  12.0264130
  74.8270721 185.9337006  11.4620390  75.4614944 186.6233063  11.8389606
  74.7495041 185.8170166   9.9565916  73.8720932 186.3048706   9.5320272
  76.0107956 186.5331421   9.4879580  76.8654709 185.9325104   9.7991982
  75.9575272 186.4977722   8.3998318  76.2578049 188.0142670   9.9572792
  76.6925659 188.0877075  10.9541168  77.0267334 188.3458862   9.2595148
  74.9902496 188.9116058   9.7856245  74.3172379 188.7498474   8.6955643
  74.6570663 189.8423615  10.5791540  74.8132324 184.3286743   9.4520140
  74.2848434 183.9861145   8.3892527  75.4020309 183.3803406  10.2535381
  75.7892990 183.6654358  11.1417074  75.4019623 181.8779755  10.0138779
  75.6074371 181.7090759   8.9568310  76.5250549 181.2859802  10.8065319
  76.7321091 180.2552185  10.5188513  77.4398956 181.8573761  10.6494474
  76.2306366 181.3236847  12.1821346  77.0089035 181.1256104  12.7081318
  74.0274963 181.1500244  10.3000212  73.9363556 179.8996124  10.0762587
  72.9706955 181.8007050  10.8227797  73.0149231 182.7922363  11.0098934
  71.6915512 181.1766052  11.2199688  71.7661819 180.0937195  11.1205282
  71.4113922 181.3998413  12.7597723  71.4786987 182.4843292  12.8462620
  70.4344788 181.0093842  13.0448608  72.4859009 180.7969055  13.6952629
  73.4927292 181.1051331  13.4134989  72.2646103 181.2285919  15.2575197
  71.2052383 181.0634155  15.4538412  72.9448776 180.7265472  15.9454794
  72.3845215 182.3087158  15.3415718  72.4666748 179.2501984  13.6201611
  72.7108612 178.8652344  12.6300678  73.2568741 178.8515930  14.2564011
  71.4868622 178.8492432  13.8795691  70.5158310 181.6427002  10.2931767
  70.5040359 182.7640686   9.8421946  69.4874268 180.8095703  10.1281166
  69.5548401 179.3636475  10.3454075  69.2222595 179.1104431  11.3520756
  70.5597763 178.9984283  10.1336756  68.6380920 178.7549591   9.3518381
  68.2099686 177.7987823   9.6527348  69.1874237 178.7606812   8.4103994
  67.5261230 179.8004456   9.2015266  66.8041763 179.6467743  10.0035686
  67.0293808 179.6176453   8.2486734  68.3114853 181.1222382   9.3043928
  68.6860733 181.3903809   8.3165226  67.4510193 182.2713928   9.8278074
  66.9903412 182.3309784  10.9450140  67.1214371 183.2106171   8.8722038
  67.5456696 183.1846924   7.9559870  66.2832870 184.4157562   9.1672783
  66.5166245 184.8290253  10.1485329  66.5373535 185.5195465   8.1315651
  65.7119675 186.2270050   8.2112989  67.7848587 186.3012390   8.4874220
  68.6505203 185.6388855   8.4839668  67.9483261 187.0419922   7.7046928
  67.7037506 186.7599030   9.4728909  66.7284851 185.0248108   6.7852874
  66.7703094 185.8121185   6.2375588  64.7461014 184.1204987   9.2166224
  63.9125900 184.8768921   9.7132740  64.3500824 182.8494263   8.9016685
  65.1135330 182.2239227   8.6872358  62.9960442 182.3126221   8.7657480
  62.3678894 183.1853333   8.9443302  62.8662720 181.6647491   7.3341212
  63.4785080 182.2211151   6.6243930  63.2914085 180.6626282   7.3899989
  61.4585152 181.7039948   6.8118629  60.8212624 182.7384644   6.8361354
  60.9144707 180.5591431   6.3580918  60.1010704 180.8238678   5.8210664
  61.5417786 179.8114777   6.0981040  62.6898766 181.3653259   9.9062805
  63.4613037 180.4050140  10.1090269  61.6284409 181.5533142  10.7464104
  60.6027946 182.5955505  10.6531334  60.2945557 182.7963562   9.6270885
  61.0138588 183.5445404  10.9974442  59.4444466 182.0756836  11.5430126
  58.8373070 181.3378143  11.0185671  58.8644981 182.8781128  11.9989386
  60.1989594 181.3516998  12.6380453  59.5884857 180.6677856  13.2276735
  60.6167641 182.1371155  13.2678738  61.4147911 180.7239990  11.9207106
  62.2460556 180.8364410  12.6167383  61.1208496 179.2807465  11.5634222
  61.6280785 178.4640350  12.3094645  60.5370750 178.9486847  10.3964567
  60.2068329 179.6902466   9.7955208  60.4114189 177.5606384   9.8751221
  59.7975464 177.0071869  10.5857239  59.6546440 177.5487518   8.5170689
  60.0716133 178.3794556   7.9477086  59.8575058 176.3553619   7.5999928
  59.7574081 175.3937531   8.1033716  59.1921883 176.2628632   6.7415638
  60.8805161 176.5102539   7.2571292  58.1320648 177.8948212   8.6662159
  57.5147362 177.2416382   8.0494900  57.8759842 177.7386322   9.7141333
  57.9813042 179.4158630   8.2876787  58.0052414 179.4851227   7.2001462
  57.0065536 179.7789459   8.6134663  58.7351761 180.0612793   8.7384701
  61.8094597 176.8880768   9.8068733  62.1275978 175.9715729  10.5697689
  62.6698456 177.3822479   8.9230433  62.3290787 178.1242371   8.3285294
  64.0508652 176.9667053   8.8631964  64.0338669 175.9363861   8.5078897
  64.7334976 177.8049164   7.7472825  64.7777939 178.7944641   8.2021837
  65.7764587 177.5284729   7.5926476  63.9924736 177.9453278   6.3671336
  62.8322372 178.4327698   6.3156734  64.6386337 177.4974670   5.3418636
  64.9615097 176.9324951  10.1056929  65.7725296 175.9686127  10.2476225
  64.8016052 177.8750610  11.0339766  64.2752838 178.6782532  10.7209740
  65.5190811 177.9938354  12.2580681  66.5941849 177.8711548  12.1269493
  65.2812500 179.3697815  12.8772230  65.5534515 180.0693512  12.0869026
  64.2039871 179.4431305  13.0262861  65.9242096 179.6597290  14.2683945
  65.2319107 179.1949158  15.4332514  64.2844391 178.6788940  15.3839951
  65.8221893 179.3370209  16.6725292  65.3937378 178.9536896  17.5867958
  67.0505371 179.9712524  16.7796974  67.5991974 180.0512848  17.7065067
  67.7329254 180.4199829  15.6012268  68.7312317 180.8048706  15.7483730
  67.2137451 180.1630402  14.3572502  67.8541794 180.1811066  13.4878168
  65.1853943 176.8737488  13.2205238  65.9891586 176.0614624  13.6944485
  63.8481064 176.8178558  13.4688282  63.1781197 177.5048828  13.1538296
  63.2896156 175.7726135  14.3830328  63.7766380 175.8127747  15.3573513
  61.7962036 175.9313354  14.6693821  61.4948883 175.2845612  15.4933949
  61.4818611 176.9588013  14.8526878  61.1749077 175.6080475  13.4091911
  61.3573380 176.2560120  12.7247400  63.6448898 174.3793945  13.9324646
  64.0499420 173.5879211  14.7627783  63.6309814 174.0992279  12.5956326
  63.1825638 174.7332611  11.9498529  64.1421356 172.8081360  12.0335989
  63.5760193 172.0591736  12.5873833  63.8031654 172.6400146  10.5558004
  64.0429306 173.5921326  10.0824041  64.5759811 171.9738312  10.1723213
  62.4577560 172.1322479  10.1544838  61.9079933 170.9996338  10.8180618
  62.5205803 170.4326172  11.5033579  60.6569595 170.4475708  10.3727350
  60.2048111 169.5633545  10.7971497  60.0201874 171.0636292   9.3090248
  58.8003197 170.6587524   8.8742828  58.1529236 171.3676147   8.8770885
  60.4837532 172.2850037   8.8131056  59.8981247 172.7898254   8.0590525
  61.6690483 172.8290558   9.2192001  62.1110992 173.6982269   8.7549372
  65.5749283 172.5090942  12.4061317  65.8415833 171.3626862  12.7813005
  66.5601959 173.4296875  12.2519884  66.2933044 174.2904816  11.7960024
  67.9829636 173.2473755  12.6232710  68.3469086 172.3671417  12.0933399
  68.8195877 174.5135956  12.2983541  68.5024185 174.9057922  11.3320856
  68.6135483 175.2306213  13.0930347  70.3329849 174.2098083  12.3880539
  70.8905869 175.1410675  12.4877396  70.6281738 173.6099701  13.2489481
  70.9073257 173.7346497  10.9970598  71.9950943 173.6890411  11.0497856
  70.5096741 172.7316284  10.8423834  70.4934769 174.6278076   9.9035845
  69.6471863 174.3408356   9.4328966  71.2289963 175.5243073   9.2910252
  72.3720474 176.0416718   9.7914209  72.6357040 175.7509918  10.7220612
  72.8607483 176.7593842   9.2754974  70.9009018 176.0009003   8.1203241
  70.0680389 175.6565399   7.6644201  71.5173187 176.6839600   7.7037005
  68.0385284 172.8015137  14.1453161  68.6908798 171.8065186  14.4250059
  67.2363205 173.4456482  14.9250536  66.6042709 174.0937500  14.4771852
  67.1995087 173.1820679  16.3829365  68.2335815 173.1305542  16.7237415
  66.5104370 174.2754364  17.1809750  65.5515900 174.4519653  16.6935921
  66.4397125 173.9593658  18.7097607  67.3771820 174.0382843  19.2602367
  65.8164062 174.7715607  19.0838394  66.0405197 172.9880676  19.0018597
  67.2711487 175.6044922  17.0337811  67.3784180 175.8289795  15.9725513
  66.7940979 176.4278412  17.5653973  68.3092880 175.5742645  17.3645954
  66.5788116 171.8162842  16.6581211  67.1716309 170.9750824  17.3702164
  65.3863602 171.4000549  16.0392189  64.8739777 172.1153259  15.5432777
  64.8424072 170.0522614  16.2192154  64.6433487 169.7777252  17.2551231
  63.5338898 170.0865021  15.4446373  63.8059158 170.2626648  14.4039259
  63.0244980 169.1259003  15.5211592  62.9173355 170.9220886  15.7759399
  65.7712326 168.9111786  15.7161484  65.9445267 167.9058990  16.4145355
  66.5462799 169.1334991  14.6491966  66.3887100 169.9841919  14.1280651
  67.6286850 168.2830505  14.1802578  67.1206131 167.3463440  13.9510355
  68.0891037 168.8887329  12.8624372  68.5647659 169.8605652  12.9943247
  68.8473053 168.1738892  12.5427103  67.3159103 168.9353943  12.0955629
  68.7391663 168.1519470  15.2266331  69.1172943 166.9834137  15.4850340
  69.3030930 169.2263489  15.8164673  68.9078064 170.1382751  15.6368656
  70.5272293 169.1842041  16.6108685  71.1577911 168.3644714  16.2665749
  71.3458633 170.4324188  16.3953342  72.3560257 170.3494263  16.7963238
  71.3812485 170.6829681  15.3351059  70.5275269 171.8188477  17.1309414
  69.4546051 171.6837616  16.3464165  70.3217468 168.9326172  18.1317558
  71.3020248 169.0393524  18.8981953  69.0286865 168.7264252  18.5541973
  68.2893372 168.8263702  17.8734074  68.6225891 168.5890198  19.8926544
  69.2459259 169.3123932  20.4182663  67.1576462 168.9247589  20.0900116
  66.6505280 168.8009033  19.1331501  66.7422409 168.2046356  20.7949677
  66.8928757 170.3369904  20.6225891  67.3078842 171.1497192  20.0264854
  65.3781586 170.4783173  20.8059883  65.0740204 169.8281097  21.6262531
  65.2345428 171.4966888  21.1670952  64.8305511 170.2693634  19.8869877
  67.5339890 170.5309601  22.0020580  68.5773544 170.8020477  21.8408222
  67.0912704 171.3997650  22.4891853  67.4570541 169.7005310  22.7038822
  68.8456726 167.1006165  20.4448605  68.3722229 166.2261505  19.7574768
  69.5018234 166.9038696  21.5905190  70.3908844 167.8807526  22.2071915
  69.8328171 168.7705536  22.4985962  71.1518860 168.1404114  21.4712849
  70.9398499 167.1849213  23.3959827  70.2621613 167.3486176  24.2338600
  71.8840485 167.6580658  23.6656761  71.0344467 165.6974487  23.0345440
  71.0012512 165.1067963  23.9500389  71.9641113 165.4946899  22.5028381
  69.7662506 165.5445251  22.1483479  70.0946121 164.8675385  21.3596954
  68.5502777 164.9803009  22.8599472  68.1722260 165.5169525  23.9136734
  67.9155579 163.9406891  22.3566437  68.2408218 163.5027008  21.5066643
  66.6681671 163.3627930  22.9255199  66.8212128 163.3355255  24.0043774
  65.3353119 164.2034454  22.6552086  64.7858429 163.5865173  21.9441605
  64.4428482 164.2123413  23.9260635  64.9898224 164.3350372  24.8608704
  63.5982285 164.8797760  23.7550602  63.9842873 163.2351074  24.0771980
  65.5290833 165.6450958  22.0452137  65.9756012 166.3021088  22.7915726
  66.1785965 165.4548340  21.1907921  64.2495651 166.3447571  21.5486813
  63.7824821 166.7353058  22.4527931  64.4788971 167.1247711  20.8226681
  63.6046371 165.6127472  21.0625553  66.4314728 161.9971924  22.4739323
  66.9703140 161.5901489  21.4293308  65.6234055 161.1828766  23.1913700
  65.1825027 161.4634705  24.0556412  65.1764145 159.8593597  22.6862183
  66.0019455 159.2913818  22.2572479  64.6310577 159.0842743  23.9308167
  64.3947220 158.0513306  23.6752987  65.3710938 158.9692078  24.7227802
  63.3323746 159.7330017  24.5023308  63.5170555 160.6917114  25.2817230
  62.2596588 159.1914062  24.1054955  64.0672607 159.9375610  21.6190586
  63.3584824 160.9391174  21.4515324  63.9721146 158.8568420  20.8717976
  64.5173416 158.0738983  21.2031994  63.3588676 158.7310028  19.5504665
  63.7821846 159.5144653  18.9219131  63.4362297 157.3918457  18.7982330
  63.1266937 156.6246796  19.5079689  62.7489433 157.3914185  17.9522190
  64.8347397 157.0046082  18.3355980  65.7663956 157.8543701  18.2964077
  65.0800095 155.7866669  18.0194931  61.8555679 159.0515747  19.6960850
  61.3686066 159.7658997  18.8623409  61.2062988 158.6756897  20.7856560
  61.7299347 158.3253784  21.5750809  59.7350121 158.8477783  20.9739552
  59.3123550 158.3957977  20.0766392  59.2538261 157.9501953  22.1867485
  59.6664543 158.2072144  23.1623440  58.1931534 158.1505127  22.3382244
  59.3393097 156.8911591  21.9433899  59.3506927 160.3285370  21.0281353
  58.3656349 160.7912292  20.4067974  60.1425362 161.1553650  21.6812325
  60.9090500 160.7670135  22.2120266  60.0443611 162.6171570  21.8126678
  59.0080719 162.8666077  22.0406551  60.8255577 163.0077362  23.0918884
  60.4890862 162.2831726  23.8334389  61.8753357 162.7831573  22.9031124
  60.6509781 164.4900360  23.5725288  61.4333153 165.0246124  23.0337505
  59.3110924 165.1752319  23.3432446  58.5457535 164.6131897  23.8784752
  59.2576447 166.2057343  23.6943684  59.1467018 165.1707001  22.2657223
  60.9449654 164.6398773  25.0743675  61.9441071 164.2765503  25.3148041
  60.8886070 165.7030792  25.3078289  60.2065468 164.0579529  25.6259117
  60.4383354 163.2676697  20.5083084  59.7630577 164.2527618  20.1410103
  61.5002174 162.7882690  19.8171539  61.8473244 161.8978882  20.1440144
  61.8849678 163.2648773  18.4346542  61.9884338 164.3489532  18.3881626
  63.2733269 162.6667786  18.0386219  63.2000580 161.6390228  18.3941975
  63.4844780 162.6266785  16.9700222  64.3638077 163.4751129  18.7199841
  64.3163071 164.5095215  18.3796177  64.0671234 163.4916534  19.7686996
  65.7864838 162.9039001  18.6675549  66.5383835 163.5284424  19.1499195
  65.8347626 162.0595245  19.3551693  66.4219131 162.6530609  17.3246994
  66.1938019 161.7705841  16.8896027  67.2433395 163.4706421  16.5872326
  67.5737915 164.6344452  17.0147743  67.2012863 164.9526367  17.8980045
  68.0775146 165.2801056  16.4235954  67.7534103 163.1844635  15.4141045
  67.5362244 162.2901764  14.9979525  68.6034164 163.6220856  15.0883951
  60.7517128 162.8717651  17.3957386  60.6242485 163.7088776  16.5211372
  59.8519096 161.8552094  17.5602665  60.1349258 161.1176758  18.1895866
  58.5782738 161.7456512  16.8035316  58.7624283 161.8524780  15.7345257
  58.1044464 160.2957153  17.0265179  57.9241447 160.2107239  18.0981388
  56.7740097 160.1739349  16.2695961  56.8393440 160.4361572  15.2136250
  56.4009247 159.1498108  16.2623596  55.9580498 160.7263641  16.7355747
  59.0363007 159.2356720  16.4091110  58.8726692 159.2113800  15.3317375
  60.0969353 159.3677826  16.6228962  58.6280746 157.8442230  16.9831276
  57.7509880 157.4010162  16.5115623  59.3336906 157.1445923  16.5351105
  58.6713333 157.7843018  18.0706196  57.6231117 162.8545685  17.2473640
  57.0525589 163.6026459  16.3946934  57.4241409 163.0475006  18.5660858
  57.9209366 162.4558563  19.2166653  56.5075722 164.0318451  19.1035652
  55.5388412 163.7222290  18.7113876  56.4148140 163.9833832  20.6648769
  57.3577499 164.2962799  21.1132812  55.7092819 164.7760010  20.9140396
  55.9375076 162.7025146  21.3557816  56.7791939 162.0142059  21.4326000
  55.7674179 162.8670197  22.4197903  54.7374611 161.8672333  20.7821198
  53.7829437 162.3532257  20.1443272  54.6467476 160.5889893  21.0884418
  53.9175339 160.0549774  20.6376801  55.2956581 160.1627808  21.7344818
  56.8816566 165.5285645  18.6831875  56.0500526 166.3943481  18.4169140
  58.2168961 165.7142944  18.4596081  58.8944283 165.1631165  18.9668179
  58.7811928 166.8864594  17.7714100  58.3289833 167.7384644  18.2790585
  60.2457161 167.0213470  18.0732059  60.4137383 166.7308655  19.1102657
  60.8697090 166.4484711  17.3872414  60.8512955 168.4803925  17.9677410
  60.6731110 168.8103790  16.9442863  60.1067352 169.3622284  18.9217758
  60.1589851 168.9280548  19.9202042  60.5667915 170.3477020  18.9944630
  59.1235657 169.6522064  18.5510998  62.3419304 168.4980011  18.2021427
  62.9060097 167.7778931  17.6093884  62.7197151 169.5086212  18.0471096
  62.4762230 168.3367004  19.2717438  58.4039688 166.8405457  16.2628384
  57.8074837 167.7135010  15.7757101  58.7885208 165.8017731  15.5168676
  59.3089447 165.1067810  16.0328655  58.6724091 165.7075043  14.0601635
  59.2683067 166.4943695  13.5977201  59.1951828 164.3092194  13.5810604
  60.1902351 164.0131378  13.9131870  58.6579742 163.6149139  14.2271700
  58.9199905 163.7872314  12.1377335  57.8686523 163.8950195  11.8709488
  59.7967186 164.6405945  11.2437878  60.8337708 164.3093109  11.1902275
  59.5573654 164.3941498  10.2093439  59.7009048 165.7097321  11.4331331
  59.1918983 162.3368835  11.9000397  58.6125183 161.7090912  12.5770187
  58.8856506 162.2070007  10.8620377  60.2364159 162.0543823  12.0314894
  57.1894341 165.8488617  13.6158257  56.9276772 166.2579193  12.4900656
  56.2783165 165.4337006  14.4727583  56.5579987 165.0858917  15.3787985
  54.7963982 165.5532837  14.3150311  54.5136490 165.1686859  13.3351154
  54.1117630 164.7707825  15.4714823  54.7931824 164.3756409  16.2248955
  53.4827042 165.4376373  16.0611382  53.2215919 163.6174774  14.9641876
  52.3298836 163.9992981  14.4670296  53.7024193 162.9196777  14.2786379
  52.7340240 162.8556213  16.2373276  53.5944977 162.3817139  16.7096558
  52.3731346 163.5655365  16.9815655  51.6685181 161.8868561  15.7377748
  50.8916512 162.4323883  15.2020559  52.1852455 161.1741028  15.0950794
  51.0333443 161.2689056  16.9033070  50.8070145 162.0023041  17.5598240
  50.2050591 160.7862549  16.5853577  51.6451912 160.6927032  17.4634247
  54.2239304 167.0005188  14.2777367  53.1289825 167.1605988  13.7035475
  54.9092598 167.9392242  14.9270210  55.7710228 167.7104645  15.4015045
  54.4788971 169.3140411  15.0592899  53.7124748 169.3524323  15.8333855
  55.6405678 170.1846008  15.6424980  56.4978180 170.0600586  14.9808998
  55.2454453 171.6866913  15.5962362  54.2236710 171.9054260  15.9064493
  55.9064064 172.1358948  16.3374786  55.5514641 172.1819153  14.6747131
  56.0453453 169.7680817  17.1031952  56.3064690 168.7098236  17.0980148
  56.9575920 170.3043976  17.3644791  54.9664040 170.0352020  18.1384926
  54.1803894 169.2826385  18.0758629  55.4770393 169.9392090  19.0966854
  54.6022606 171.0547028  18.0114994  53.9546280 169.9087067  13.7286921
  54.5631638 169.7928314  12.6971827  52.8453102 170.6807709  13.7844925
  52.4184380 170.8022003  14.6917601  52.2884331 171.3759766  12.6960297
  52.3221245 170.7070312  11.8360987  51.2371788 171.5848846  12.8943281
  53.0473251 172.6269226  12.4632969  53.5552902 172.7711792  11.3535042
  53.1460037 173.5669556  13.4161520  52.7445030 173.3264313  14.3111601
  53.7698669 174.8806610  13.0879021  53.9701271 174.9202728  12.0171890
  52.7814751 175.9644012  13.5885439  51.8132668 175.8797607  13.0950851
  52.6150093 175.7652283  14.6471882  53.3842850 177.2696838  13.4067268
  53.2008095 177.5087738  12.4952583  55.1337166 175.1244965  13.7594604
  55.2791100 174.6502533  14.8855305  56.0113754 176.0589752  13.2152615
  55.9189987 176.2645721  12.2307329  57.2898521 176.3919067  13.8671646
  57.8631516 175.4797363  14.0326357  58.0953636 177.2568817  12.9225283
  57.4401321 178.0984497  12.6977053  58.9473610 177.7274933  13.4131641
  58.2970238 176.6893158  12.0140610  57.0750008 177.0893402  15.2386093
  57.8636551 176.8957367  16.1411514  56.0318909 177.8390503  15.3625031
  55.3863564 177.8750458  14.5865583  55.5527534 178.4053040  16.6476097
  56.2358627 179.1667023  17.0240688  54.1758537 179.1516113  16.4356422
  53.5524864 178.4512329  15.8797741  53.5551109 179.4484100  17.8725109
  54.1783791 180.0478058  18.5361137  52.5932503 179.9564056  17.8027935
  53.4103241 178.5200500  18.4250278  54.4576569 180.4871368  15.7765865
  54.9643822 181.1584778  16.4698734  55.1127243 180.2676544  14.9334869
  53.1865540 181.1606598  15.2266359  52.5413857 181.4980011  16.0378494
  53.4491920 182.0786438  14.7008581  52.6879272 180.4720764  14.5444918
  55.5182266 177.3400726  17.7324924  56.2680664 177.4076385  18.7022266
  54.7145233 176.2733612  17.5136929  54.2014503 176.1844482  16.6482754
  54.7423286 175.1118774  18.4149590  54.6101189 175.3832855  19.4623203
  53.7333450 174.1069489  17.9721661  54.0352135 173.6782837  17.0165367
  53.8839760 173.2521362  18.6314983  52.2534485 174.4229431  17.9529457
  51.9059601 174.2013550  18.9620304  52.1426697 175.5040131  17.8684368
  51.5049782 173.8236542  16.7834873  51.8998375 172.9629364  16.0090694
  50.1876335 174.1269989  16.7475929  49.6923141 173.6727753  15.9936380
  49.8274231 174.9421997  17.2227612  56.0824471 174.4144287  18.4442520
  56.4970398 174.0084839  19.5266953  56.8315468 174.3170013  17.3340206
  56.3451309 174.5391388  16.4771881  58.0788040 173.5138092  17.4096413
  57.9519348 172.5312958  17.8642254  58.6111450 173.2099152  15.9875832
  57.7348595 172.8627472  15.4401369  58.9707069 174.1277008  15.5222836
  59.7169304 172.1190186  15.9140100  60.6613693 172.6183014  16.1304760
  59.5043716 171.3573151  16.6641560  59.8600235 171.5129089  14.5361376
  60.8130455 170.9841614  14.5196238  59.0778580 170.8161926  14.2346630
  60.0408669 172.5843811  13.4871264  60.8631325 173.1689301  13.5349512
  59.2381935 172.9236298  12.5025568  58.0515137 172.3542786  12.1977901
  57.7305412 171.4898071  12.6097965  57.6675529 172.7138519  11.3355951
  59.5892792 173.9227753  11.7190237  60.4326744 174.4589844  11.8648434
  58.9621849 174.2354889  10.9916506  59.0619545 174.1481171  18.3466778
  59.6558685 173.4768677  19.2489815  59.1561661 175.4811096  18.3161907
  58.5810280 175.9982605  17.6666851  59.9254417 176.3217621  19.2112961
  60.9103165 175.8842316  19.3746414  59.9135437 177.7436676  18.7044277
  58.9053688 177.8789215  18.3127804  60.0284538 178.4897308  19.4907398
  60.9729576 177.8739929  17.5748291  61.1168480 176.9740601  16.9769211
  60.4633141 179.0282745  16.6036797  60.3130455 179.9457550  17.1726742
  61.2570381 179.2080688  15.8785744  59.5298424 178.8430023  16.0722637
  62.3065643 178.3419189  18.1825867  62.5667953 177.5587921  18.8947048
  63.0311737 178.3957977  17.3701000  62.2146149 179.3513031  18.5835629
  59.4345551 176.2746887  20.6287708  60.2626915 176.1568146  21.5146999
  58.1153793 176.2946320  20.8831902  57.5371361 176.3147736  20.0553436
  57.6364212 176.0320435  22.2683620  58.0445061 176.7811737  22.9468651
  56.0850792 176.1878967  22.2099571  55.6223793 175.5700989  21.4403267
  55.7434349 175.8661652  23.1937599  55.7025528 177.6965637  22.1122322
  56.0019188 178.1769562  23.0437393  56.2603683 178.2475433  21.3550186
  54.1643105 177.9510956  21.9216118  53.9522514 179.0195770  21.8831520
  53.8689308 177.5966034  20.9341011  53.4085541 177.2221069  23.0526142
  52.9982758 176.3503876  22.7494793  53.2539406 177.5306091  24.3074722
  53.5694962 178.6937256  24.7643127  53.9491386 179.3752594  24.1228447
  53.2427521 178.9537354  25.6839504  52.7481270 176.6373138  25.1083546
  52.6803398 175.7004242  24.7371826  52.5702171 176.8391266  26.0818653
  58.1062660 174.7031250  22.8045578  58.6307106 174.6221771  23.8937511
  57.9617729 173.6520386  22.0327873  57.4054413 173.7338715  21.1938019
  58.2752876 172.3355713  22.5165596  57.7663345 172.1463776  23.4616928
  57.8539162 171.2756348  21.4370117  56.8168678 171.3995819  21.1251278
  58.5204506 171.4732513  20.5974998  58.2482109 169.6377563  22.0274391
  57.6006126 168.8912048  21.1284542  59.7747231 172.1849670  22.8198452
  60.1784286 171.5519104  23.8336792  60.5535698 172.7533722  21.9050961
  60.1453476 173.2393494  21.1194267  61.9768066 172.8883514  22.1330185
  62.4072990 171.8871460  22.1141891  62.6420822 173.6757812  21.0321960
  62.1449089 174.6344299  20.8841362  63.6535912 173.9406586  21.3400898
  62.6746292 172.9676056  19.6603794  63.4297981 172.1861267  19.7448349
  61.7590485 172.3995056  19.4958134  62.8726807 173.9342804  18.4616623
  63.2854233 175.0943451  18.6117306  62.4784203 173.4522858  17.3322945
  62.3223000 173.4864960  23.4906883  63.2186165 172.9642792  24.1740665
  61.6636658 174.6299133  23.8602085  60.9435768 175.0020599  23.2576542
  61.9145927 175.2823639  25.1477203  62.9902611 175.4467621  25.2110767
  61.2873573 176.6771393  25.1625366  60.2246780 176.6291656  24.9248066
  61.2798805 177.1391754  26.1497383  61.8759727 177.6862640  24.1364727
  62.0657120 177.2282104  23.1657524  60.9189606 178.8354340  23.9111996
  60.7127647 179.3622742  24.8428822  61.4458084 179.4964905  23.2230682
  59.9859848 178.5850677  23.4062519  63.2371521 178.2042236  24.5096836
  63.9465370 177.3907776  24.6618881  63.7522392 178.9144135  23.8628235
  63.0349426 178.8048859  25.3964882  61.4984703 174.5403290  26.3838253
  62.1654167 174.5921936  27.4092560  60.4244881 173.7339783  26.2592144
  60.0178108 173.6815033  25.3361969  59.9099312 172.7323303  27.1905251
  59.7613831 173.2606812  28.1322708  58.5422096 172.2120361  26.6018105
  57.9029961 173.0634918  26.3683128  58.6202545 171.6384277  25.6782322
  57.6634178 171.3772430  27.5439453  58.1202316 170.9990845  28.6320724
  56.4552498 171.1947784  27.2158337  60.9519653 171.6280823  27.5083046
  61.1616592 171.4065857  28.6832867  61.6476097 171.1227417  26.4686718
  61.2534523 171.4136810  25.5854435  62.8085136 170.2337799  26.4965038
  62.4763756 169.4686432  27.1981773  63.1084366 169.5497742  25.0995598
  63.3372040 170.3258972  24.3692265  64.3582687 168.6874390  25.2613564
  64.1669388 167.9152222  26.0064640  64.4364700 168.0937958  24.3505440
  65.2578049 169.2763214  25.4406624  62.0107117 168.5521698  24.5513725
  62.2826118 167.5080872  24.7065754  61.0090942 168.7130127  24.9501171
  61.9258804 168.7575226  22.9977684  62.8749924 168.8177185  22.4651718
  61.3367805 167.9906769  22.4947815  61.3851738 169.6696777  22.7453690
  63.9471245 171.0278625  27.1423016  64.5000687 170.6211395  28.1654873
  64.3883667 172.1680145  26.5904064  63.8894730 172.4448090  25.7569866
  65.5864029 172.9255676  27.0292664  66.4612427 172.2780151  26.9706249
  65.8386154 174.1379700  26.0716038  64.9939575 174.8144684  25.9411869
  66.6696701 174.7557373  26.4119244  66.3497849 173.6396790  24.7214413
  67.2259827 173.0198822  24.9117699  65.5622406 172.9522705  24.4126663
  66.4769592 175.0070038  23.5153103  67.2002563 174.2594147  22.1270905
  66.5522919 173.4319305  21.8381138  67.5154190 175.0082703  21.4004688
  68.1064682 173.7484283  22.4523048  65.4255066 173.3595886  28.4552040
  66.4769669 173.4078827  29.0440464  64.2640762 173.6445618  28.9807014
  63.4156113 173.7807617  28.4499893  64.1799622 174.0219574  30.4083328
  64.8751755 174.8361664  30.6128788  62.7492027 174.5788879  30.6807632
  62.0191498 173.8498383  30.3291740  62.6881599 174.7510223  31.7553520
  62.4749908 175.9743347  30.0362911  63.3770409 176.6697693  29.5574951
  61.2045746 176.3986206  30.0575638  60.9739609 177.3307648  29.7444515
  60.5473862 175.7837982  30.5160236  64.4799194 172.8583374  31.3649864
  65.0812225 172.9479370  32.4564209  63.9395256 171.6843719  30.9641247
  63.4909592 171.7022552  30.0593777  63.8243828 170.4452209  31.7686329
  63.8664398 170.6815338  32.8318787  62.4562454 169.8206635  31.4694538
  62.4266739 169.7904663  30.3802738  62.4158287 168.8007812  31.8519764
  61.3224716 170.7142944  32.1011009  61.4116020 170.5633545  33.1769142
  61.4501610 171.7852325  31.9433517  59.9277306 170.2919312  31.6314640
  59.9504471 169.9640503  30.5921993  59.6680374 169.4296265  32.2455254
  58.8234215 171.3831635  31.8182468  58.7990532 171.6979980  32.8614998
  59.0714417 172.2635345  31.2253628  57.4722672 170.8670044  31.4258595
  57.1812401 170.0321655  31.9141712  56.7919006 171.5519409  31.7226334
  57.4290047 170.8268433  30.4175854  64.9612350 169.4485779  31.5179615
  65.0474319 168.4099121  32.2541962  65.7825089 169.6461182  30.4823132
  65.6368027 170.4246674  29.8556271  66.9484482 168.9382629  30.1590042
  66.8358002 167.8604126  30.2758350  67.3496017 169.4262085  28.7544498
  66.5037155 169.3802795  28.0685501  67.6047974 170.4821930  28.8432579
  68.7668076 168.6113281  28.0271549  68.2961502 167.3977203  27.7262383
  68.0890350 169.2180328  31.2456264  68.4337006 170.3701477  31.5118217
  68.7538910 168.1688995  31.7290955  68.6011429 167.2426147  31.3565559
  69.7694168 168.3453217  32.8042107  70.2599945 169.2984467  32.6068192
  69.1903763 168.4149933  34.2483406  70.0653915 168.5869446  34.8751488
  68.2570877 169.6306915  34.5672684  67.2815933 169.3276367  34.1868896
  68.2900085 169.7757874  35.6470642  68.6769867 170.5274658  34.1116600
  68.5197906 167.2358704  34.5439262  67.8770981 167.0841370  33.8471336
  70.9277954 167.3632050  32.6843109  71.7434082 167.4413605  31.7920933
  70.9505844 166.3067627  33.5281143  70.2514572 166.2814026  34.2565842
  71.7151642 165.1001587  33.3784599  72.7668686 165.3536224  33.5117989
  71.4261246 164.1427155  34.5152512  71.7495956 164.6024017  35.4491386
  70.3580322 163.9285583  34.4775505  72.2157059 162.9445190  34.4797096
  72.1466827 162.5395355  35.3473625  71.4661789 164.3863220  31.9891014
  70.2986450 164.1926422  31.5346451  72.5032730 163.8212585  31.4089394
  73.4250793 163.9223328  31.8091278  72.3559418 162.7885895  30.3251972
  71.2820969 162.6094360  30.2716541  72.7013016 163.3975830  28.9218426
  73.7903061 163.4292908  28.9559479  72.5672531 162.6713562  28.1201382
  72.0577087 164.7632294  28.4393177  71.9834976 165.4756927  29.2608967
  72.7323303 165.5131836  27.3052082  73.0216980 164.8689575  26.4749413
  72.1686783 166.3529510  26.8987675  73.6876907 165.7963257  27.7470455
  70.6540222 164.4186859  27.9424801  70.1003723 163.8378601  28.6801910
  70.0642166 165.2645569  27.5893135  70.8168030 163.7147980  27.1262970
  73.1276703 161.4688416  30.6436653  74.3521423 161.3250580  30.9197235
  72.3927383 160.3316650  30.5547009  71.4229660 160.4608154  30.3037930
  72.8381577 159.0319366  31.1361980  73.8309021 159.0714111  31.5845318
  71.8307495 158.6272583  32.1915245  70.9391098 158.3305511  31.6392117
  72.0878906 157.6667023  32.6379890  71.5864487 159.8918457  33.4584808
  70.8791428 159.2362366  34.3830299  72.9188919 157.9082794  30.0218563
  72.4081421 158.0270844  28.9186020  73.6404800 156.8204193  30.3596210
  74.0841904 156.7562103  31.2646656  73.6094284 155.6086578  29.5318871
  73.8135300 155.8778992  28.4955673  74.7637482 154.6769867  29.9142017
  75.6545029 155.1642456  29.5176525  74.7681198 154.5668793  30.9986172
  74.6910934 152.9735413  29.1656513  73.8201675 152.4335022  30.0228252
  72.2178802 155.0240173  29.6149368  71.7662125 154.7734222  30.7395020
  71.6428528 154.6250916  28.4733334  72.1669083 154.8336182  27.6354885
  70.2130051 154.1604919  28.4211769  69.5314789 154.8463440  28.9243965
  69.7545319 154.0296631  26.9626408  70.0037613 154.9190826  26.3839245
  70.2974167 153.2206726  26.4738560  68.2490845 153.7762756  26.7914143
  68.1275635 152.7627563  27.1736603  67.7303391 154.4520416  27.4713726
  67.8233185 153.8251343  25.3505058  68.5685654 153.2436676  24.8077259
  66.8362503 153.3694000  25.2723713  67.9376602 155.2711334  24.8703079
  67.2720795 155.8174896  25.5385971  68.9653702 155.6298981  24.9269142
  67.3655167 155.4562378  23.4477310  66.4342117 155.0890808  23.3137302
  67.3106384 156.4146423  23.1337776  67.9421234 155.0578308  22.7204781
  70.1039429 152.8052673  29.1543694  69.1199417 152.5929413  29.9163055
  71.0325623 151.8616791  28.9378338  71.8560638 152.1414032  28.4243221
  70.8870010 150.5371246  29.5628567  69.9459610 150.1120148  29.2138290
  72.0018539 149.6537933  28.9169388  71.8941422 149.7393494  27.8356533
  72.9666824 150.0476227  29.2365017  72.0166245 148.1406555  29.2691784
  72.4231186 148.1058655  30.2799473  71.0326920 147.6738434  29.3145885
  72.7668915 147.2601776  28.2681885  73.3702393 147.7512970  27.2445450
  72.8630753 145.9796906  28.4588890  73.2940369 145.4775238  27.6958714
  72.5785370 145.4746704  29.2859840  70.8314285 150.5519257  31.1205502
  70.1906891 149.6929779  31.7110729  71.5516968 151.4788513  31.8297920
  72.2355728 151.9968872  31.2968140  71.4399948 151.7678070  33.2707367
  71.3004303 150.8627625  33.8619423  72.7248611 152.4652863  33.7011032
  72.7462387 153.4815216  33.3074875  72.7646790 152.5149994  34.7892418
  74.2636719 151.5944519  33.3233223  74.9750214 152.1537170  34.3062248
  70.1970673 152.6250000  33.6193123  69.6614990 152.5495453  34.7278442
  69.7912064 153.4384918  32.6256142  70.2996750 153.2626495  31.7708340
  69.0244751 154.7386627  32.7656250  68.9453659 155.1499786  31.7593079
  67.5572433 154.3373413  33.1114197  67.6303711 153.7783356  34.0442924
  66.9439697 155.2261658  33.2596931  66.8995285 153.3817749  32.0789032
  67.1365967 153.6633911  31.0529442  67.2802811 152.4113007  32.3971863
  65.3956223 153.3290863  32.2192192  64.7391663 154.2659607  32.7145767
  64.7490768 152.3425751  31.7166061  63.7486610 152.4733429  31.7631855
  65.1814651 151.4953308  31.3770199  69.5595016 155.7745972  33.7658615
  69.3359070 156.9592896  33.4704857  70.2490082 155.3900452  34.8078423
  70.1799011 154.4179993  35.0732918  70.6676178 156.2899017  35.8809242
  70.0336990 157.1759491  35.8468094  70.2705154 155.6778412  37.2599106
  70.4943771 156.4006958  38.0444336  69.2002869 155.4758759  37.3037415
  71.1197205 154.4572601  37.7227936  71.9400711 153.9947205  36.9304886
  70.8919754 153.8777161  38.7961502  72.1504059 156.7637634  35.9384308
  72.4702682 157.7728882  36.5511246  73.0935593 156.0844574  35.2688255
  72.7871246 155.3098602  34.6977005  74.4919586 156.4692383  35.2872849
  74.8046036 156.6110535  36.3218117  75.4435501 155.3887939  34.7954407
  75.2789764 155.3938599  33.7179489  76.8769531 155.6151428  35.2085533
  77.0151215 155.5901489  36.2894745  77.3556442 154.7727356  34.7092247
  77.2820892 156.5592957  34.8444862  75.2042618 154.0650635  35.2292328
  75.0028152 154.1384735  36.1649818  74.7036667 157.7315369  34.3872490
  74.7759323 157.6089325  33.1763649  74.9330673 158.9230652  34.9964943
  74.7250900 158.9457855  35.9845848  75.3318939 160.1380463  34.3477631
  74.5623856 160.3609467  33.6086617  75.5605545 161.1858978  35.4366760
  74.6666107 161.3492432  36.0385818  76.4272614 160.8913269  36.0284004
  75.8915176 162.6360779  34.8770638  76.7293472 162.6682281  34.1805649
  75.0511856 163.0074921  34.2905502  76.3039780 163.6222687  36.0201302
  76.2766190 163.2494354  37.1919594  76.6841736 164.7818909  35.7218742
  76.6432571 159.9522858  33.5327835  77.6282196 159.5237427  34.0334435
  76.6235428 160.4765015  32.2772751  75.7891922 160.8225555  31.8253803
  77.8326263 160.5737152  31.4541359  78.6818771 160.0642548  31.9094601
  77.6281052 159.6587830  30.2142582  76.5678635 159.5513458  29.9852581
  78.3724060 160.1934204  28.9359531  79.3943558 160.4153748  29.2432995
  78.3738708 159.5316620  28.0698280  77.9360733 161.1678314  28.7162857
  78.1344223 158.2253876  30.4020844  77.9877625 157.6312103  29.5001202
  79.1861038 158.3240967  30.6709995  77.4305801 157.3334656  31.3946590
  76.3641357 157.2010651  31.2122936  77.9674149 156.3982086  31.5534325
  77.3476486 157.8895264  32.3284798  78.2349701 161.9874878  31.2301884
  79.4107971 162.2557373  31.1463947  77.2253876 162.8104401  30.9321384
  76.2756348 162.5189514  31.1140633  77.3809738 164.2574615  30.9000473
  78.1061554 164.5716400  31.6507225  77.9530945 164.6687775  29.5230827
  78.8516388 164.1385803  29.2074776  76.9112320 164.7137756  28.3742867
  76.1771698 165.5185089  28.4151516  77.4066162 164.7393341  27.4036999
  76.3120422 163.8100739  28.4855366  78.4481888 166.0424347  29.5813694
  79.3990250 165.9855804  29.7008400  76.1563950 165.0359650  31.3962116
  75.1128540 164.5134125  31.8603497  76.1903229 166.3742371  31.3978386
  77.0501328 166.8102112  31.0965767  75.1448364 167.3456116  31.8106003
  74.1504974 166.9103088  31.7110691  75.3604431 167.6311493  33.2769012
  75.2624969 166.7280426  33.8793144  76.5783463 168.2898865  33.7562370
  76.6264114 169.3014526  33.3530884  76.7095413 168.2747803  34.8382034
  77.4841690 167.8129578  33.3819199  74.3499451 168.4544220  33.8334808
  74.7278824 168.8879089  34.6021500  75.0416489 168.5884705  30.8819866
  76.0394745 168.9861298  30.2696667  73.9471359 169.3263245  30.9479771
  73.2440338 168.9359741  31.5590172  73.6006622 170.4434204  30.0723476
  73.4067688 170.0025024  29.0945473  72.3112183 171.0527954  30.6852531
  71.4612732 170.3719330  30.7312527  72.5041885 171.3380737  31.7194080
  71.9157791 172.2769775  29.8829479  72.7056427 173.0195770  29.9959583
  71.8993607 171.9747772  28.8358040  70.5691910 172.8951874  30.2665062
  69.8958740 172.0597839  30.0745583  70.6763306 173.1802216  31.3131084
  70.2504730 174.1088715  29.3729916  71.0886917 174.7948761  29.4949951
  70.1528549 173.8149261  28.3279247  69.0444717 174.8276825  29.7516327
  68.9753571 175.0324097  30.7382469  68.9633942 175.7274780  29.3000832
  68.1845093 174.3369293  29.5523090  74.8168488 171.4235077  29.8881321
  75.1226578 171.7498627  28.7494678  75.4281006 171.9478455  30.9622917
  75.0091553 171.6973877  31.8465195  76.3706512 172.9936829  30.9082928
  75.9589462 173.8030701  30.3053818  76.5662079 173.4719086  32.3349762
  77.0241699 172.7156677  32.9725227  77.2831345 174.2886810  32.2514305
  75.3177338 174.1013947  32.9783554  74.4431458 174.7626648  32.3629265
  75.0301361 173.8127594  34.1962929  74.2611465 174.2444000  34.6886787
  75.7353287 173.3412476  34.7444496  77.7257690 172.5892334  30.1555538
  78.4690247 173.4576416  29.7365799  77.8656082 171.2719421  29.9812450
  77.2300034 170.5582581  30.3080139  79.0023117 170.7844543  29.2110939
  79.8670044 171.3904724  29.4815483  79.3494186 169.3065186  29.5831757
  78.5138931 168.6556549  29.3255215  80.1821899 168.9345093  28.9863548
  79.7700119 169.1770172  31.0170746  78.8958130 169.2438965  31.6646881
  80.1338348 168.1517487  31.0844765  80.9385376 170.0672913  31.6023941
  81.7012558 170.7773590  30.8786850  81.2024765 169.9177246  32.8172951
  78.7654419 170.7993164  27.6506348  79.6994171 170.5900879  26.8373604
  77.5098267 170.8379364  27.2186642  76.7417145 170.8930359  27.8721771
  77.0884323 170.9755707  25.8260155  77.5638657 170.1604767  25.2804012
  75.5054932 170.8652039  25.6194286  75.1202164 171.7863922  26.0565567
  75.3168411 170.9556580  24.1025105  75.9506531 170.2041779  23.6316967
  74.3100967 170.7065735  23.7670803  75.5069809 171.9562836  23.7142982
  74.7860260 169.6076813  26.1460590  75.1036377 168.7473907  25.5568790
  75.1646194 169.4505463  27.1560497  73.2521515 169.8159485  26.2134075
  72.7940979 169.8294983  25.2244148  72.8064575 168.9987335  26.7805119
  73.0758209 170.8054047  26.6352825  77.7256088 172.2297668  25.1442337
  77.5154190 173.4095459  25.5288525  78.5113907 171.9609222  24.0554352
  78.5624466 170.9923553  23.7737141  79.1252899 172.8775482  23.1663876
  78.6179123 173.8382111  23.2546768  80.6104584 173.1561432  23.5444527
  80.8883820 174.2017822  23.4121475  80.6851349 173.0491333  24.6266117
  81.6095886 172.2720337  22.8669052  81.9452744 171.0268555  23.4083176
  81.3505402 170.6502991  24.2274094  82.9002838 170.2017975  22.7799931
  83.1996689 169.2753448  23.2473545  83.6473923 170.7173004  21.7272663
  84.4468536 170.1600037  21.2617874  83.2853012 171.9303589  21.1240635
  83.8235168 172.2435608  20.2416649  82.2260284 172.7027588  21.6990948
  81.9696198 173.6908722  21.3465614  78.8844376 172.4761810  21.7113018
  78.4632492 171.3521881  21.4070530  79.0769806 173.5019836  20.8206863
  79.2689743 174.3927612  21.2562866  78.9427109 173.4422302  19.3758430
  78.3663940 172.5704041  19.0661926  78.1494751 174.6885986  19.0127316
  78.5094376 175.6376801  19.4099255  78.0670700 174.6827087  17.9258614
  76.8177414 174.4722595  19.3589954  76.3229599 175.2752838  19.1802711
  80.3176575 173.3993988  18.6121140  81.0335007 174.3785248  18.4076595
  80.6926804 172.1804352  18.3089180  80.2343826 171.3605499  18.6802082
  81.8675690 171.9208374  17.4279995  82.6812515 172.6080780  17.6597309
  82.3926773 170.5337372  17.6244240  82.3915100 170.3268738  18.6946163
  81.6344223 169.9325409  17.1227093  83.7997971 170.2458038  17.0608959
  83.7954330 170.4362030  15.9876614  84.9412918 171.1125031  17.6739082
  85.1128464 170.8297119  18.7125111  85.8593292 170.9032898  17.1247883
  84.7887421 172.1916809  17.6592236  84.1038513 168.7593384  17.2320728
  83.3129959 168.1065216  16.8626480  85.0045090 168.4966125  16.6771965
  84.2179871 168.5721283  18.2997932  81.5186386 172.2304840  15.9170637
  82.3635406 172.6783752  15.1568985  80.2024994 171.9920502  15.5833416
  79.6748581 171.5782318  16.3386211  79.6888199 172.1710663  14.2446537
  80.5186386 172.1656189  13.5379257  78.7399826 171.0039825  13.9044170
  79.2406921 170.0459595  14.0443840  77.8467407 171.1771698  14.5045958
  78.3986435 171.0803070  12.5710287  78.2178726 170.2429352  12.1377592
  78.8892670 173.4897919  14.0761662  78.3927841 174.0455170  15.0574665
  78.6923904 173.9574432  12.8279753  79.2448425 173.4467773  12.1540880
  77.6884842 174.8413391  12.3555498  77.6828690 175.7841034  12.9025869
  78.1270447 175.1946716  10.9340401  78.2275085 174.3152618  10.2979221
  77.2244110 175.5283203  10.4221554  79.3253860 176.1703949  10.6961021
  80.2084045 175.6707611  11.0945444  79.4030457 176.4345093   9.1557779
  78.5473404 176.9943695   8.7783947  80.2245331 177.0678558   8.8209372
  79.4047775 175.5083160   8.5811033  79.1406708 177.5070038  11.4126663
  79.1586685 177.3791199  12.4949884  79.9811935 178.1556549  11.1659193
  78.1811371 177.9897919  11.2274666  76.2673340 174.2514954  12.3232584
  75.2901764 174.9988251  12.3902884  76.0634918 172.9222412  12.4607811
  76.8852997 172.3350983  12.4609184  74.8375854 172.2374268  12.8308764
  73.9275055 172.6837311  12.4300461  74.8577347 170.7815247  12.3490591
  75.7755508 170.2844238  12.6630821  73.9859848 170.2795715  12.7688341
  74.6106949 170.8289490  10.5077295  74.6807785 169.4968719  10.4333410
  74.4776001 172.4303131  14.2936773  73.4531937 171.9140930  14.7650728
  75.2614746 173.1895752  15.1149273  76.0702820 173.6528015  14.7258997
  75.1393051 173.1972809  16.5647793  75.4997177 174.1560059  16.9376450
  74.0895462 173.2528381  16.8529015  75.8013916 172.0388641  17.2862473
  76.7283936 171.4986267  16.7367420  75.3811264 171.6595459  18.4681072
  74.2006912 172.1171265  19.2690544  73.3639374 172.1587677  18.5717735
  74.3678665 173.0917664  19.7275677  73.9969482 171.1011810  20.3685627
  73.5027466 170.1976471  20.0115032  73.3429031 171.5703278  21.1035748
  75.4276276 170.8144531  20.7352028  75.4471207 169.8905334  21.3132210
  75.8364182 171.6495667  21.3040428  76.0709534 170.6323853  19.3262272
  77.1088333 170.9254761  19.4843063  76.0394592 169.2058105  18.8354664
  76.6017227 168.3387756  19.5267181  75.3113022 168.8195801  17.7530689
  74.8415985 169.5946960  17.3073330  75.0095367 167.4533844  17.3717308
  75.9624557 166.9561768  17.5529633  73.8753967 166.9018097  18.2546158
  74.0516968 167.1222229  19.3074398  72.9653854 167.4115601  17.9381866
  73.5747910 165.3893127  18.1411400  73.3724670 165.0839996  17.1145191
  74.3732986 164.7537537  18.5239506  72.0998306 164.9849854  18.9638557
  70.8797607 165.3737793  17.6562080  70.9068680 164.5860901  16.9032650
  69.8841095 165.2457886  18.0809345  70.9281311 166.3701477  17.2168808
  74.6973038 167.3726654  15.8776464  73.9197464 168.2614136  15.4109192
  75.2636566 166.3750458  15.1945276  75.9101715 165.7882080  15.7022209
  74.9729309 166.1048889  13.7543793  73.9503632 166.3921814  13.5095682
  75.9703751 166.9303894  12.9870014  76.9620743 166.5829163  13.2766418
  75.7219543 166.8100281  11.9325333  75.9795074 167.9590302  13.3474445
  75.1740036 164.5920563  13.4692202  75.5773544 163.8442230  14.3442526
  74.7807083 164.2113495  12.2669859  74.3474426 164.9259338  11.6997585
  74.9803696 162.7988892  11.7593403  74.9919205 162.1626587  12.6443119
  73.7252960 162.4552002  10.8982353  73.6437454 163.1643219  10.0744648
  73.8454666 161.5009766  10.3852720  72.8267136 162.3687134  11.5091238
  76.2855301 162.5828857  10.9244375  76.6733170 163.4686737  10.1660376
  76.8629990 161.3846130  11.0553493  76.5936050 160.8113403  11.8420486
  78.0638504 160.9220428  10.4107819  78.2426224 161.4741364   9.4881048
  79.2777405 161.3237000  11.2713261  79.2275314 160.6919403  12.1581526
  80.1891861 161.1551666  10.6977739  79.3191147 162.7991943  11.8788137
  79.7941055 163.9337616  11.1388941  80.1471634 163.8616638  10.1207790
  79.9551315 165.2140656  11.6693392  80.3196945 165.9921112  11.0150261
  79.5106049 165.4228363  12.9514952  79.5134354 166.7215271  13.4040794
  79.8227692 167.3480377  12.7457466  79.0120468 164.3835754  13.7644749
  78.6977844 164.5427399  14.7854109  78.8510132 163.0805969  13.1775694
  78.3472290 162.3417358  13.7831173  78.0152359 159.4046173  10.1639929
  77.0966492 158.7291870  10.5753527  79.0171051 158.8065186   9.4936199
  79.8648148 159.3243256   9.3109694  79.1258087 157.3541565   9.2612562
  78.5422897 156.7654724   9.9691191  78.5418625 156.9045105   7.8930745
  78.7900085 155.8518829   7.7570934  77.0511551 156.9986725   7.8246803
  76.6730728 157.9919891   8.0664606  76.6307526 156.7518463   6.8497801
  76.6567078 156.2655182   8.5282450  79.0185776 157.7099152   6.7335696
  80.1083145 157.6889648   6.7451944  78.6649323 157.2749634   5.7987633
  78.6498871 158.7256317   6.8766842  80.4978256 156.6784973   9.3285122
  81.4776611 157.1840515   8.8179836  80.5388870 155.3935089   9.8293266
  79.7183075 155.0271301  10.2903376  81.7229614 154.4926758   9.6786957
  82.6168365 155.1126862   9.7471294  81.7608032 153.4481049  10.8683481
  82.7431717 152.9801636  10.9321938  81.6011200 154.0340729  11.7734766
  80.7586975 152.3514404  10.8351479  79.8842010 152.2969971   9.9846478
  80.8982315 151.3962555  11.6531181  80.2419281 150.6420746  11.7965736
  81.7053452 151.4312134  12.2592974  81.8680344 153.8476105   8.2608995
  80.9248047 153.9937744   7.4633298  82.9514694 153.0835876   7.8735600
  84.2097015 152.9715424   8.5991993  84.2891235 152.1606140   9.3232126
  84.4064713 153.8633728   9.1941986  85.2263031 152.6896057   7.4727182
  86.0867157 152.1094818   7.8062286  85.6072464 153.5524902   6.9264488
  84.4840622 151.7714996   6.6058617  84.4990158 150.7831573   7.0652843
  84.9113235 151.6884613   5.6065316  83.1011353 152.4755096   6.5963240
  83.1899872 153.2887878   5.8760490  81.9928131 151.4943237   6.1888256
  81.5544128 151.4630432   5.0464897  81.4642105 150.7077026   7.1179500
  81.9232941 150.8710175   8.0026350  80.3234558 149.7560577   7.0633135
  80.4176712 149.1146545   6.1870580  80.4060440 148.8957977   8.2992115
  80.2150192 149.5928345   9.1151428  79.7211533 148.0509186   8.2270231
  81.8165359 148.3156891   8.5337572  82.9294052 148.9495392   9.1600866
  83.9151382 148.0605316   9.1458149  84.8415451 148.1626129   9.6914806
  83.5465240 146.9792633   8.4727488  84.0992584 146.1352081   8.5191088
  82.2072144 147.0338898   8.1980448  81.6475296 146.2951660   7.6435614
  78.9215469 150.4762268   7.0377717  77.8921661 149.8393402   7.2454581
  78.9342957 151.7808685   6.8686185  79.8118744 152.2807617   6.8759618
  77.7376480 152.5971527   6.5901012  78.0868988 153.5354919   6.1592603
  77.0848007 152.0975037   5.8743887  76.8111420 152.8997650   7.7669330
  75.9407196 153.7311249   7.5276585  76.9046783 152.2756042   8.9744921
  77.8112640 151.8651733   9.1469955  76.1281815 152.6298981  10.1676073
  75.0760498 152.3822327  10.0269213  76.6780624 151.8869476  11.4044046
  76.9869995 150.9153595  11.0187922  77.6115952 152.3843536  11.6674795
  75.6388626 151.8220825  12.5101786  74.6414032 150.8251801  12.4370785
  74.8127899 149.9790039  11.7882290  73.5205460 150.8035583  13.2941771
  72.7423706 150.0582733  13.2206993  73.4126434 151.8237000  14.2483673
  72.2527313 151.8088531  14.9336014  71.6405487 151.0907898  14.7568998
  74.4341202 152.8311768  14.3675146  74.3346481 153.5452728  15.1716213
  75.4578094 152.8715057  13.4206638  76.1873016 153.6667480  13.3779793
  76.0937119 154.1558533  10.4987488  77.1563339 154.8261414  10.5187407
  74.8950043 154.6856842  10.7901592  74.1037369 154.0583344  10.8111038
  74.6904297 156.1243591  11.0006399  75.5256424 156.5924377  10.4796486
  73.3939438 156.6873932  10.3757029  72.5261993 156.2245178  10.8456707
  73.3993607 158.1698761  10.7991781  74.3078232 158.6210480  10.4001446
  72.5867081 158.6894531  10.2914963  73.3039932 158.3412628  11.8713865
  73.3890610 156.4861450   8.8440018  73.5801773 157.3611603   8.2227888
  74.2326202 155.8563690   8.5613565  72.1861725 155.7097626   8.3060408
  71.3536224 156.4132080   8.2947140  72.4160995 155.4384918   7.2756791
  72.0123978 154.8395233   8.9389572  74.8686447 156.3878174  12.5130091
  74.0890274 155.9342194  13.3217907  75.7394028 157.3468933  12.7727966
  76.4257202 157.5059814  12.0490828  76.1885757 157.7792664  14.0972414
  75.6254501 157.1815338  14.8139782  77.7143631 157.4656677  14.2962465
  78.2883377 157.9078522  13.4819260  78.0512390 157.9757385  15.1987009
  77.9759521 155.9850769  14.4147243  77.4242096 155.1384125  15.4077587
  77.9896088 153.9655762  15.1620111  77.6707687 153.0797424  15.6912127
  78.8410950 154.0029755  14.1415701  79.3893738 153.2054138  13.8528204
  78.8733521 155.3090820  13.6554422  79.3970871 155.6732178  12.7839413
  75.8716583 159.2306976  14.2476425  76.3994980 160.0589600  13.4946508
  74.9830170 159.5513458  15.1469402  74.6060715 158.8531799  15.7719049
  74.5784531 160.9375305  15.4947319  74.9005508 161.6818542  14.7664948
  73.0947495 161.1253662  15.7188826  72.6174469 160.3120117  16.2654419
  73.0017319 162.0148926  16.3419380  72.2344055 161.4207001  14.4463177
  72.7844086 162.2336426  13.9722729  72.1965485 160.5545502  13.7856779
  70.7835846 161.8386536  14.8301353  70.1739731 161.2948303  15.7253904
  70.2564011 162.7526245  14.1253843  75.2779617 161.2618866  16.8089008
  74.8467789 160.7298889  17.8443623  76.3165741 162.1823120  16.8626614
  76.6213684 162.6905518  16.0447979  77.1492310 162.3104248  18.0528107
  76.8497086 161.6428528  18.8607349  78.6984100 162.0398865  17.8672981
  79.2701340 162.5914154  18.6136570  78.9892731 160.5602570  17.8163090
  78.4929504 160.0869598  16.9691029  80.0534592 160.3939514  17.6491737
  78.7509766 160.0915680  18.7711143  79.1233292 162.6240540  16.6961193
  80.0723343 162.5165405  16.5990524  76.9537354 163.6759644  18.6526337
  77.1071014 164.6636810  17.9184933  76.7218933 163.7728119  19.9520721
  76.6304321 162.9146729  20.4767933  76.5778503 165.0157166  20.6536331
  76.2119598 165.8997345  20.1313915  75.6551590 164.7747040  21.8515739
  74.6221008 164.7237091  21.5076389  75.9413528 163.8344269  22.3228340
  75.6907730 165.8194580  22.9464893  76.7540894 165.9770966  23.1270885
  75.0277634 167.0717163  22.4492207  73.9880066 166.8736420  22.1889133
  75.2368851 167.9053345  23.1196270  75.5356979 167.4009857  21.5427532
  75.0448456 165.4460907  24.2720852  75.5790939 164.5999298  24.7041740
  75.1773148 166.2504883  24.9956131  74.0095291 165.1575928  24.0904331
  77.9930191 165.3406219  21.1702557  78.6774521 164.4346924  21.6771450
  78.3774261 166.5923004  21.0291462  77.7393036 167.2696228  20.6365643
  79.7288132 167.0616913  21.4606094  80.3233032 166.1491699  21.5052738
  80.4142151 167.9526520  20.3885994  81.3890381 168.3664246  20.6467056
  80.7017288 167.1353760  19.1023235  79.6985626 166.8974457  18.7485714
  81.1162949 167.8502655  18.3915653  81.3831100 166.2873230  19.1704044
  79.5423203 168.9542084  19.9701767  79.5188141 169.6748505  20.6040020
  79.7434616 167.7452545  22.8127747  78.9534378 168.6739655  23.0988083
  80.5815201 167.2994080  23.7522221  81.1792068 166.4951477  23.6256065
  80.7336349 167.8175964  25.1394081  80.3190308 168.8248291  25.1805344
  79.9608078 167.0382080  26.2188377  80.1842957 167.4511414  27.2025242
  78.4179916 167.2149963  25.9979477  78.1380386 166.5898132  25.1500835
  77.8278046 166.8328247  26.8308487  78.1872253 168.2438660  25.7217407
  80.3577728 165.5391083  26.2697353  81.4322281 165.4325104  26.4190388
  79.9388351 165.0718536  27.1609497  79.8827744 165.0603790  25.4134102
  82.2847443 167.9479523  25.4220467  83.0139999 167.0717316  25.0320034
  82.7437897 168.9406281  26.1791649  82.1399002 169.6293945  26.6046295
  84.1399841 169.0487213  26.7297134  84.8530121 168.9599457  25.9100647
  84.2297592 170.4458160  27.4302158  83.4728622 170.5250702  28.2105541
  85.1829910 170.5366669  27.9509926  84.0675354 171.6029358  26.5170078
  84.9083557 171.7445679  25.4087029  85.6011734 170.9437866  25.1961632
  84.8246536 172.9104309  24.6088829  85.4762497 173.1042328  23.7696743
  83.8467407 173.8494720  24.9123154  83.7942657 175.0263367  24.2123528
  84.5096970 175.0141449  23.5723515  82.9942551 173.7104950  26.0539665
  82.3370056 174.5375977  26.2783051  83.1380539 172.5834351  26.8988285
  82.5656891 172.4909058  27.8100071  84.4939117 167.9719849  27.7145729
  85.6704254 167.6131134  27.8353233  83.5028534 167.5016022  28.5247822
  82.5689850 167.8749695  28.4321575  83.8052444 166.5704498  29.6374168
  84.7352524 166.0217285  29.4888096  83.9958572 167.4988403  30.9099636
  84.7948227 168.2125854  30.7091827  83.1235123 168.1511536  30.9501801
  84.1667557 166.8359528  32.2693825  83.2977219 166.2262268  32.5165939
  85.0617065 166.2212524  32.1728859  84.3958282 167.8836517  33.3038788
  85.2375488 168.5102844  33.0090370  83.5420532 168.5512238  33.1876144
  84.6740189 167.2492828  34.6894569  84.6219864 168.0017548  35.4763260
  83.8842773 166.5434723  34.9468155  86.0832443 166.7092438  34.8210793
  86.8479996 167.2991180  34.5256424  86.3190079 166.4819031  35.7765007
  86.1222153 165.8716431  34.2580376  82.7468643 165.5028992  29.8330593
  81.5649567 165.7819519  29.7851849  83.2320786 164.2554321  30.0101147
  84.2106476 164.0699158  29.8424644  82.4410706 163.1131592  30.4980412
  81.4215393 163.4576111  30.6712666  82.3490906 161.9846649  29.4481239
  83.3574066 161.5723877  29.4857502  81.4778976 161.3373260  29.5485458
  82.2475662 162.5081482  28.4974632  82.9211731 162.5450287  31.8547287
  84.1181717 162.3683929  32.0527191  81.9750214 162.1401672  32.7461739
  80.9876328 162.2558441  32.5679245  82.3078613 161.7211609  34.0870323
  83.2882233 162.1455994  34.3034515  81.2929382 162.2915497  35.1347237
  80.2957916 161.8778839  34.9841156  81.6477814 162.0536499  36.1375237
  81.2085419 164.1582794  34.9685326  82.4161758 164.4578094  35.4551620
  82.4638901 160.2352295  34.1553726  83.5777512 159.8546448  34.5282974
  81.3729019 159.4709930  33.9195213  80.5129318 159.9643555  33.7267799
  81.4099655 158.0382843  34.0530281  82.2952347 157.7813568  34.6347427
  80.1912308 157.6024017  34.8829880  79.2407227 157.8282013  34.3996162
  80.2199478 156.5238190  35.0377235  80.2191010 158.1584930  36.3311157
  80.9497070 157.6839905  37.1931038  79.4225998 159.1490631  36.6053963
  79.3189011 159.4409332  37.5667305  78.7742004 159.4015808  35.8733215
  81.4736481 157.2321320  32.7576332  80.6529617 156.3004608  32.5414162
  82.5378647 157.4965363  31.9523411  83.1155167 158.3161774  32.0732002
  82.9644928 156.6365051  30.8448067  82.1856842 155.9124603  30.6053925
  83.1895218 157.3851929  29.5508175  84.0162430 158.0793304  29.7018356
  83.4601517 156.6491394  28.7937984  81.9522705 158.0409393  28.9923534
  81.4447250 158.6115417  29.7701149  82.1866379 159.0085907  27.9083824
  82.3001175 158.4694672  26.9678707  81.2650146 159.5336151  27.6572437
  83.0720673 159.6122894  28.1075478  80.9226379 157.0441132  28.4901505
  80.5854034 156.3348846  29.2460403  80.0110855 157.5928497  28.2533760
  81.2411880 156.5079041  27.5962219  84.3210373 156.0154877  31.1496010
  85.1801987 156.6072998  31.7910805  84.5733795 154.7654266  30.6544952
  83.8157501 154.5181885  30.0340290  85.9050827 154.2231598  30.4663086
  86.7166748 154.8018646  30.9073524  86.0171738 152.8291016  31.0631332
  85.2603531 152.1805725  30.6218472  86.9855194 152.4368134  30.7524471
  85.9034729 152.8303070  32.5994949  85.9027176 153.8680267  33.2257538
  85.7515640 151.6175690  33.1266098  85.6050034 151.5929871  34.1256180
  85.8490067 150.8487701  32.4788742  86.2781830 154.2113495  28.9621334
  85.4500732 154.4237518  28.0781364  87.5677643 153.9881439  28.7833252
  88.0712814 153.6929321  29.6075935  88.2916260 153.9752197  27.5200901
  87.6839447 154.3452148  26.6942997  89.4377823 154.9868622  27.5172253
  89.9909210 154.5182190  28.3311672  89.9177628 155.0311127  26.5395947
  89.1718903 156.4267426  27.9023647  88.7071915 156.4555817  28.8879185
  90.4828873 157.1616821  27.8820610  91.0078735 157.0611115  26.9321251
  90.4149094 158.2281494  28.0968304  91.2234039 156.7257538  28.5526733
  88.3292542 157.0330963  26.7950039  87.3600769 156.5350494  26.7675495
  88.1581345 158.0988312  26.9467964  88.9013672 156.9839783  25.8685207
  88.7616348 152.5411682  27.2388268  89.2675934 151.9035492  28.1857052
  88.7076950 152.1247559  25.9629459  88.2145767 152.7229919  25.3156013
  89.5346909 151.0503235  25.3789082  90.2987289 150.7820740  26.1085548
  88.6921158 149.7642059  25.2057648  89.2744446 148.8898621  24.9150467
  88.2889175 149.5924377  26.2037773  87.6509628 150.0250549  24.2653275
  86.8778076 150.1032410  24.8289967  90.2285385 151.4472351  24.0594006
  89.9634933 152.5103302  23.4334927  91.1353683 150.5608673  23.6290760
  91.3367996 149.7213593  24.1532478  91.8734360 150.7397766  22.3819313
  92.2807770 149.7667084  22.1074810  91.2120743 151.1038818  21.5957165
  93.0998535 151.6486816  22.5646954  93.6781006 151.8210754  23.6314754
  93.4781418 152.2262573  21.4335060  92.9321060 152.0604553  20.6001644
  94.4114532 153.4091187  21.3152981  94.5043640 153.8733521  22.2971210
  95.8246765 153.0107727  20.7554550  95.7719498 152.6545105  19.7266712
  96.5604553 153.8088837  20.6566372  96.5763321 151.9945374  21.6204433
  95.9055710 151.1358948  21.6505032  97.5117416 151.7662354  21.1095676
  96.8559113 152.3978119  23.1007462  97.4232178 153.3271027  23.1525059
  95.9347153 152.5480042  23.6637192  97.4944153 151.2458191  23.7751884
  98.4638748 151.0908966  23.5380154  96.9161682 150.2136383  24.4116192
  95.7247391 150.2451019  24.8409462  95.1654434 151.0580444  24.6255379
  95.2250290 149.4780884  25.2676640  97.5714798 149.1446838  24.7657146
  98.5114899 148.9722595  24.4389877  97.1805115 148.4930725  25.4310303
  93.8821564 154.4292297  20.3067493  92.8530579 154.1702881  19.7155533
  94.4370193 155.6851654  20.2593441  95.4963455 156.2264862  21.1573086
  96.5296326 156.0225677  20.8765373  95.3688736 155.7697754  22.1387730
  95.2635803 157.7064972  21.2246227  96.1767731 158.3016205  21.2289906
  94.6177292 157.9890747  22.0559616  94.5026245 158.0016785  19.8550835
  95.2523499 158.2114716  19.0921917  93.7856979 158.8087769  20.0057335
  93.8904648 156.7015381  19.4224472  92.8164444 156.7455139  19.6031647
  94.0949173 156.3795013  17.8756046  95.1386261 155.7913513  17.4547615
  93.2002258 156.7677307  17.0157681  92.2856979 157.0719299  17.3177567
  93.4123840 156.6958160  15.5252934  94.4646835 156.8967590  15.3243332
  93.0269699 155.2940063  14.9964542  93.3868866 154.4991608  15.6497402
  91.9444122 155.2385254  14.8819914  93.5899277 155.1559448  13.6739912
  94.4739304 154.7821198  13.6540508  92.6944046 157.7491302  14.7556906
  91.7194901 158.2832947  15.3175716  93.2530823 158.2269135  13.5947189
  94.1968002 157.9575043  13.3561640  92.6741409 159.2520294  12.7013140
  92.0044403 159.8811646  13.2876501  93.7647781 160.1478882  12.0321493
  93.2897186 160.8435059  11.3403826  94.5086746 161.0574951  12.9903555
  95.0934525 160.4046936  13.6384163  95.2460175 161.6047363  12.4030247
  93.8891754 161.7804718  13.5210419  94.7274017 159.3023987  11.4726830
  95.3206024 159.8578186  10.9615812  91.9235153 158.5093231  11.5882854
  91.2389145 159.2545929  10.8394918  92.0141449 157.1945648  11.4306622
  92.5583191 156.6411896  12.0770044  91.3124161 156.5451660  10.2828188
  91.7842865 156.9436951   9.3847017  91.4133377 155.0170135  10.3658400
  91.0203629 154.6651306  11.3196983  90.7788391 154.5955048   9.5861864
  92.8472214 154.3394318  10.2551289  93.3661270 154.3493652  11.2136383
  92.5903931 153.3023376  10.0392551  93.7417450 154.7571411   9.1245832
  93.3676071 154.6732025   7.9374261  94.9318924 155.0246887   9.4170055
  89.8267899 156.9597473  10.2417097  89.1274338 156.7346344  11.2927418
  89.4146805 157.5499115   9.1292105  90.1014709 157.5623779   8.3887606
  88.0520706 158.0742950   8.8807735  87.9336929 158.5543213   7.9093480
  87.2539368 156.6850128   8.7482462  87.9368134 155.8674774   8.5171328
  86.8166733 156.4452515   9.7174797  86.1971359 156.6793060   7.7501922
  84.8970032 156.4420776   8.1125574  84.1632996 156.3222198   7.0006456
  83.0951996 156.1894684   6.9115286  84.9935379 156.4525909   5.9408326
  84.7553711 156.3673248   4.9630265  86.2690887 156.6251221   6.3976302
  87.2062988 156.6008911   5.8614788  87.4701996 159.0084534   9.9537945
  86.2330093 159.1555786   9.9951229  88.2458038 159.6143036  10.8474007
  89.1961823 159.2724304  10.8514166  87.6606293 160.5505066  11.8660851
  87.0625000 160.0208435  12.6075687  88.8467255 161.2263794  12.5999823
  89.4162369 160.4818268  13.1562176  89.4822388 161.8802338  12.0027313
  88.2174225 162.0149231  13.6323166  88.8485107 162.5803070  14.0836239
  86.7541962 161.6299438  11.2908583  87.1002655 162.3243561  10.3436995
  85.5989380 161.9118195  11.9260607  85.4774399 161.5773468  12.8712959
  84.6130524 162.8385773  11.3403149  84.6442947 162.6492462  10.2673349
  83.2419662 162.3969269  11.9834232  83.2616653 162.6582642  13.0414467
  82.4525299 162.9755249  11.5037165  82.8487930 160.9583130  11.7900858
  82.8220520 160.3170776  10.6268721  83.2097473 160.7789001   9.7308760
  82.4549713 158.9635620  10.8343267  82.4507217 158.2766876  10.0938530
  82.0638809 158.7246246  12.1508160  81.6673431 157.6388550  12.8886805
  81.5053329 156.6696472  12.4405813  81.4593048 157.7582703  14.2734613
  81.3352509 156.9056549  14.9246531  81.6203613 159.0381012  14.8826065
  81.4337616 159.2366791  15.9276657  82.1021881 160.0793152  14.1164703
  82.3141251 160.9929962  14.6518965  82.3688049 159.9723053  12.7707100
  85.0029755 164.2987061  11.6374731  84.3083191 165.1998138  11.1758547
  86.0941315 164.5308228  12.4205437  86.6030350 163.6936646  12.6660728
  86.7101746 165.8241119  13.0171900  86.1884384 166.6893768  12.6083040
  86.3269424 165.8299561  14.5360384  86.9141159 165.0666656  15.0466413
  86.5864334 166.8021240  14.9551535  84.8830795 165.6039734  14.7920494
  84.0035782 166.6285400  14.3996725  84.3181839 167.5811005  13.9996090
  82.6323547 166.4962921  14.6307068  81.9670181 167.2598724  14.2556419
  82.1388168 165.3984528  15.3358564  81.0722046 165.3338623  15.4925575
  82.9808731 164.3646698  15.7179518  82.6013031 163.4770355  16.2021389
  84.3350220 164.5090637  15.4713888  84.9674072 163.7154236  15.8410082
  88.2051773 165.9465179  12.6268206  89.0924683 165.3979645  13.2817907
  88.5875397 166.5949707  11.4424562  87.7027283 166.9794769  10.4115906
  87.3421097 167.9984894  10.5517616  86.8621826 166.3434296  10.1340237
  88.5597305 167.0694122   9.0972300  88.1920624 167.8069153   8.3837748
  88.5127411 166.0843048   8.6330528  89.9230270 167.4658356   9.7168055
  90.1378784 168.5221710   9.8783970  90.7026443 167.1707153   9.0145302
  89.9775314 166.7212677  11.0354891  90.3118973 165.7037964  10.8328924
  90.8920212 167.3252869  12.0366077  90.6764297 168.4229279  12.5416145
  91.9758072 166.6757507  12.3769360  91.9880753 165.6894836  12.1596203
  92.9417343 167.0641785  13.3616295  93.9180832 166.6414032  13.1247778
  93.0692139 168.1390533  13.4901381  92.6191406 166.5532837  14.7720451
  93.3192825 166.9517517  15.7042046  91.6412659 165.6691742  14.9734659
  90.9868851 165.5249939  14.2177505  91.3624191 164.8762817  16.1189041
  92.0919800 165.1470184  16.8821545  90.0013428 165.4356995  16.6230278
  89.3218079 165.3117371  15.7798386  89.5583344 164.8339996  17.4166260
  90.0297012 166.8507233  17.1256313  90.4992142 167.0506287  18.4328117
  90.5737762 166.1693420  19.0526371  90.5892792 168.3166046  18.9231205
  90.8453217 168.4382782  19.9652538  90.2893829 169.4098206  18.1281223
  90.5176468 170.6776428  18.5209103  90.6641541 170.6707611  19.4696388
  89.7446289 169.2372437  16.8018513  89.4091110 170.1709137  16.3751278
  89.6530380 167.9280853  16.2887135  89.2999649 167.7810364  15.2787027
  91.4313889 163.4114685  15.8679705  90.8146362 162.9535675  14.9033422
  92.0072021 162.6343994  16.8345909  92.4851151 163.1190033  17.5808239
  92.0973969 161.1929016  16.9190865  91.9615021 160.8344116  15.8987341
  93.4194794 160.7365723  17.4188461  93.4531937 161.1904144  18.4092903
  93.4095230 159.6502838  17.5082779  94.2230148 161.1248169  16.7929916
  90.9990463 160.6815338  17.8422375  90.7800674 161.2758636  18.8813229
  90.2285233 159.6614990  17.3440151  90.4177322 159.2246399  16.4532528
  89.2238007 159.0214081  18.1123772  88.8330536 159.7985840  18.7692089
  88.1412506 158.5481262  17.1129208  87.2278824 158.2740173  17.6408520
  87.8693542 159.4647064  16.5894127  88.4809570 157.5545959  16.0579472
  88.6945648 157.7913818  14.7542181  88.7351379 158.7962036  14.3603849
  88.9399643 156.6548157  14.0521917  89.0269852 156.5969391  13.0476141
  88.8988724 155.5311584  14.9070339  88.9756622 154.1662292  14.6927271
  89.2210464 153.6952515  13.7523212  88.8166809 153.3124237  15.8186836
  88.9388885 152.2660675  15.5807886  88.4873123 153.8420105  17.0818996
  88.3910217 153.2428436  17.9752789  88.4228287 155.2208252  17.2750072
  88.3050766 155.6250763  18.2695503  88.6177292 156.0855103  16.1889305
  89.7967453 157.8919678  18.9787178  90.7215576 157.1779938  18.6595249
  89.1315231 157.6253967  20.1012592  88.5481873 158.3811798  20.4308510
  89.4820633 156.4381561  20.9640999  89.8488922 155.6142731  20.3519344
  90.6318741 156.7594757  21.9346142  91.5130692 156.9026184  21.3092327
  90.4424896 157.9987183  22.7857761  89.6555328 157.8515625  23.5254726
  91.3544464 158.1506348  23.3631439  90.1959229 158.8624573  22.1683254
  90.7817459 155.7434692  22.8544998  91.1183167 155.0241699  22.3151226
  88.1593628 155.9739685  21.6429138  87.3536530 156.7405396  22.1425495
  87.8578644 154.6110077  21.5462341  88.6021347 153.9809265  21.2832451
  86.5316315 154.1252747  21.9222946  85.8100739 154.6169128  21.2698002
  86.4074554 152.6147614  21.8320751  87.1453705 152.0836029  22.4332733
  85.0534515 152.0685730  22.3238411  84.2441101 152.6691895  21.9087372
  84.7994461 151.0415192  22.0616570  85.0068207 152.2229309  23.4018478
  86.6151505 152.2131348  20.3429527  86.1245804 152.8427887  19.6006756
  87.6684113 152.4559021  20.2022171  86.3690643 150.7689514  19.8663120
  85.3023071 150.8600616  19.6618176  86.9739685 150.5977020  18.9758778
  86.6253815 150.0944214  20.6832714  86.2285995 154.5240784  23.3885822
  87.0402145 154.3250885  24.3044777  85.0221176 154.9984741  23.5790691
  84.4836273 155.2044373  22.7497826  84.3145599 155.2269897  24.8926678
  85.0392075 155.0424957  25.6857224  83.9624100 156.6825409  24.9871769
  83.2466354 156.9496307  24.2097321  83.5779114 156.9560852  25.9697456
  84.7651825 157.3901672  24.7799931  83.1342087 154.2592316  25.1272182
  82.2043839 154.0175476  24.3178215  83.0464401 153.8007202  26.3701096
  83.7184601 154.1624603  27.0316544  81.9121552 153.0176544  26.8914833
  81.0880890 153.2201691  26.2073669  82.3806458 151.5065308  26.8731995
  83.3205948 151.5238647  27.4248276  81.7471313 150.8961029  27.5167427
  82.6898880 150.8952179  25.4580708  81.7114410 150.6382751  25.0522194
  83.1478271 151.6490173  24.8176117  83.6857224 149.7029419  25.6347160
  84.8905869 149.8347931  25.4758930  83.2275162 148.5948639  26.1433468
  83.9002838 147.8997345  26.4336891  82.2461090 148.3753052  26.2368050
  81.5378799 153.4775848  28.2554760  82.3488007 154.0663910  28.9642792
  80.3284302 153.1082764  28.7141838  79.7512970 152.5887146  28.0683632
  79.7700119 153.4262085  30.0718136  79.7571564 154.5028992  30.2411289
  78.3437805 152.8555298  30.1469822  77.6799164 153.3345642  29.4273262
  78.3237686 151.7932129  29.9036961  77.5926208 153.0682068  31.8077316
  76.3303909 152.7404327  31.5175076  80.7173538 152.8753510  31.1909008
  81.3467484 151.8494110  30.9320946  80.7473526 153.3436279  32.4324341
  80.3906326 154.2882538  32.4561462  81.6043015 152.8506622  33.5476227
  82.5040512 152.4392548  33.0901260  81.9836502 154.0994568  34.3431511
  82.4484100 154.8783112  33.7386131  81.0667496 154.5581512  34.7132759
  82.8835449 153.6845398  35.4437027  82.4232101 152.9429169  36.0965233
  83.7211151 153.1318970  35.0180550  83.3954849 154.9647064  36.0649071
  82.6063156 155.6301270  36.4149551  83.9121857 154.6246185  36.9623756
  84.3433151 155.6676331  35.2575951  84.8827362 155.1410217  34.5854378
  84.8145065 156.9181519  35.4609108  84.4219971 157.6958923  36.4516754
  83.6704025 157.4161530  37.0656319  84.7875061 158.6372375  36.4709892
  85.8011627 157.4011841  34.7489967  86.1878433 156.7591858  34.0719414
  86.3392334 158.2388458  34.9189987  81.0111694 151.6685028  34.2709541
  81.6457520 150.6678772  34.6305618  79.6631699 151.7895966  34.4272346
  79.2483368 152.6359863  34.0644150  78.8421402 150.8644257  35.2481346
  79.4692688 150.5952301  36.0980415  77.6552200 151.5912476  35.9508286
  77.0318985 152.0965424  35.2130966  76.7680893 150.5928650  36.7271614
  77.4057388 150.0196686  37.4001846  76.0015640 151.1363983  37.2795372
  76.2394562 149.8714447  36.1040840  78.1425934 152.8030853  36.9009743
  78.4630127 153.6663818  36.3177643  77.2118301 153.1094666  37.3783684
  79.2385788 152.4916840  37.8511467  80.1960831 152.3299103  37.3560486
  79.2900467 153.3590393  38.5092926  78.9957199 151.6605682  38.5132370
  78.5803909 149.5277405  34.5246468  78.6079025 148.4852905  35.1643906
  78.3017960 149.5373840  33.2241631  78.2622070 150.4204712  32.7355843
  77.9459457 148.3771362  32.4608917  77.9436874 147.5096436  33.1208420
  76.4932556 148.5056152  31.9281826  76.0724335 147.5450897  31.6308537
  75.8763123 148.8676147  32.7506409  76.3425903 149.6664276  30.6314011
  75.4084930 150.4415283  31.1895924  78.8938293 147.9883423  31.3374519
  78.7641144 146.8710785  30.8111477  79.7681732 148.8644257  30.7862587
  79.9102631 149.7379456  31.2729530  80.5249786 148.5107422  29.5879421
  81.4766922 149.0404358  29.5459175  80.6602631 147.4294739  29.6134968
  79.9047775 148.7137756  28.2192345  80.5499344 148.4610138  27.2005558
  78.6423645 149.1295319  28.1494179  78.1649246 149.3677063  29.0069847
  77.9629288 149.4120789  26.8095665  78.0032883 148.5084076  26.2014179
  76.5338440 149.8135071  27.1303158  76.1077881 148.9689331  27.6718731
  76.5428085 150.7389374  27.7061405  75.7937241 150.1011810  25.8501530
  75.8490372 149.3241730  24.9349842  75.1139450 151.2664948  25.7581978
  74.9481354 151.6643219  24.8447742  75.1362991 151.9169159  26.5305691
  78.7298508 150.5038147  26.0521030  79.3355026 151.4259033  26.6013508
  78.7711716 150.4279633  24.7365265  78.3196030 149.6231995  24.3259773
  79.2868347 151.4911194  23.8457546  80.3030396 151.7209167  24.1661186
  79.3144379 151.0827026  22.3537464  79.7961960 150.1101990  22.2526131
  78.2946625 150.9598389  21.9889736  79.9272995 152.1963959  21.5455189
  79.2360840 152.9475708  20.5827198  80.1295242 153.7546692  20.0585937
  79.8404541 154.4605255  19.2939930  81.3696136 153.5930176  20.5444145
  82.1649704 154.1343384  20.2370281  81.2557907 152.5787659  21.4557304
  82.1104355 152.2575378  22.0326176  78.4734421 152.8101654  24.0410709
  77.2484207 152.8115234  24.0550060  79.1696167 153.9599762  24.1305656
  80.1782074 153.9177399  24.1631260  78.6558990 155.3352356  24.2826920
  77.5836029 155.2989807  24.0904427  79.0319214 155.8158722  25.6845093
  80.1147385 155.7914124  25.8069782  78.7528915 156.8443451  25.9136219
  78.4635849 155.0430145  26.8738537  78.8351822 154.0188904  26.9082279
  78.7271042 155.6242065  27.7575340  76.6018066 154.9582977  26.8281384
  76.0002060 156.6703186  26.6866894  76.2096558 157.0645599  25.6923027
  74.9376068 156.5955048  26.9177570  76.5656738 157.2993469  27.3742008
  79.1964264 156.3706360  23.2588596  78.7718735 157.5027161  23.2461796
  80.2128525 155.9751434  22.4465714  80.4549408 154.9951782  22.4805775
  80.8507996 156.8604584  21.5408211  80.4668503 156.6382141  20.5451851
  80.6113358 157.9167633  21.6632423  82.3498611 156.8716583  21.5183182
  82.9838104 155.8226471  21.6149921  82.9825974 158.0703430  21.3505516
  82.3237991 158.8329315  21.2831821  84.4655533 158.2728119  21.2742672
  85.0293274 157.4400482  21.6947193  84.8803558 158.3036652  19.7778816
  84.5862961 159.2102661  19.2490215  85.9690170 158.2702332  19.7353382
  84.2656937 157.2132416  18.9600334  84.8383865 155.9628448  18.7205048
  85.8561172 155.6981659  18.9666252  83.9569397 155.0968475  18.1775703
  84.2166061 154.1981049  17.7968559  82.7386780 155.7137299  17.9834118
  81.4820633 155.2386322  17.5909977  81.3655777 154.2250824  17.2366467
  80.3973541 156.1933594  17.4499359  79.4058762 155.8564453  17.1856194
  80.5645676 157.5082092  17.7800312  79.6788712 158.1204376  17.6956501
  81.8046036 157.9979706  18.2445011  81.8948517 159.0034332  18.6282730
  82.9298859 157.0776215  18.3625412  84.8518600 159.4926605  22.0837860
  84.1770706 160.4920807  21.9391136  85.9793167 159.3524475  22.8134537
  86.4551849 158.4898376  23.0360680  86.7879257 160.4702301  23.2069340
  86.1955490 161.3379669  23.4971905  87.7247772 160.1652069  24.3809795
  87.1580963 159.6766052  25.1735992  88.5404205 159.5284119  24.0384483
  88.3112793 161.3961945  25.0018139  88.7736282 162.0578461  24.2693138
  87.5098419 161.9585876  25.4808788  89.3935928 161.1087799  26.1291924
  89.0926895 160.2654266  26.7507286  90.3212585 160.9440613  25.5811043
  89.5278015 162.3777618  27.0492573  89.9043045 163.1901855  26.4277039
  88.5367584 162.6666260  27.3992424  90.5207901 162.2901764  28.1555023
  91.3733902 161.8090515  27.9070950  90.9275131 163.1680603  28.4453030
  90.1276016 161.7314301  28.8993454  87.5557709 160.8762970  21.9128876
  88.0415878 160.0190735  21.1811829  87.7025070 162.1908569  21.7160492
  87.0825806 162.8530884  22.1601677  88.5919876 162.8769836  20.8118877
  89.0981674 162.0957489  20.2448273  87.7198105 163.8283691  19.9767838
  87.2495346 164.5219574  20.6738338  88.3127594 164.4246368  19.2832527
  86.8295898 163.0052795  19.1130486  87.3195724 162.5978088  17.8392639
  88.3092499 162.8485565  17.4870300  86.4807281 161.9309692  16.9369602
  86.8910446 161.7540436  15.9537344  85.1553574 161.6085205  17.2716236
  84.5166550 161.0793152  16.5799580  84.6755753 162.0185699  18.5493965
  83.6593704 161.8325348  18.8642597  85.5046921 162.6647034  19.4712276
  85.0881805 162.9334564  20.4307537  89.8037415 163.5433044  21.5250778
  89.6567459 164.0887451  22.6262493  91.0156250 163.4667664  20.9467201
  91.1242218 162.9846191  20.0659084  92.2777634 164.1084747  21.4029140
  91.9528656 164.9196014  22.0545464  93.2256165 163.1923981  22.2065620
  94.1788712 163.6802826  22.4099789  92.5921936 162.8003998  23.5292740
  91.6772537 162.2331848  23.3582268  93.2821884 162.1992035  24.1213531
  92.3515625 163.7470703  24.0130291  93.4984207 161.9639435  21.4355621
  94.1053467 162.1710205  20.7211704  92.9398499 164.6819305  20.1383495
  92.9961395 164.0576324  19.0833817  93.4378433 165.8693237  20.2734642
  93.4344254 166.3603973  21.1560326  94.0638809 166.5685272  19.1935215
  93.3792114 166.5784607  18.3454418  94.1836929 168.0590820  19.5375881
  95.0459824 168.2100830  20.1870232  94.3032608 168.5818787  18.5886440
  93.2207184 168.4509583  19.8649998  95.3917084 165.8970032  18.8196507
  96.1579361 165.4400177  19.7001247  95.7569199 165.8284302  17.5237846
  95.0243149 166.1140289  16.8898888  97.1437912 165.5474854  17.0354366
  97.5468903 164.7791748  17.6952305  97.1743774 164.8840332  15.6667023
  98.1279449 164.3901978  15.4797831  96.1449356 163.7195892  15.5493565
  95.1650009 164.0646820  15.2196150  96.5034180 163.0378265  14.7781277
  96.1485367 163.2636871  16.5394268  96.8487854 165.8516083  14.7074051
  97.3229446 165.6852417  13.8894234  98.1031418 166.7390289  17.0587387
  99.3001938 166.5520020  17.2949085  97.6105194 168.0004272  16.9607277
  96.6059341 168.1018677  16.9358940  98.3647385 169.2653503  16.8426838
  99.4225388 169.0142365  16.7645321  97.9090500 169.8616486  15.4949598
  96.8302231 169.7559814  15.3806810  98.1716156 170.9176178  15.5591145
  98.7770767 169.3989563  14.3112478  99.8345108 169.5249786  14.5437441
  98.6437454 168.3594208  14.0117645  98.4319153 170.2687988  13.0862455
  98.3423309 171.2903290  13.4557905  99.2249451 170.0610962  12.3678617
  97.0823441 169.7735138  12.4840708  97.0437851 168.6842651  12.4970846
  96.2443237 170.1173553  13.0903740  96.8679657 170.1802979  11.0662231
  97.4761887 169.7713928  10.3712721  95.9599762 169.8610229  10.7600813
  96.8759003 171.1883698  11.0043354  98.2679825 170.0929260  18.1144085
  97.1398544 170.2710724  18.6698399  99.3971329 170.6133881  18.5795059
 100.1781693 170.3741913  17.9854813  99.6347656 171.2336426  19.8752289
  99.3443756 170.4436493  20.5678349 101.1021194 171.3801880  20.1563473
 101.2795792 171.6546326  21.1961975 101.6338577 170.4778595  19.8544006
 101.7593002 172.5757141  19.4105759 101.6337891 172.4781342  18.3322315
 101.4191437 173.5339661  19.8031921 103.2383499 172.5634613  19.6944675
 103.4176407 172.6342926  20.7672863 103.7222595 171.6419678  19.3707752
 103.9952774 173.7382355  19.0622864 103.4159622 174.6568146  19.1555042
 104.9219284 173.9038849  19.6118183 104.3086624 173.4975433  17.6311703
 103.4724579 173.0767212  17.2519760 104.6048660 174.2230835  16.9940300
 105.0098038 172.7800598  17.5140362  98.9034500 172.5304718  20.1736660
  98.9582291 172.8967438  21.3505421  98.3191223 173.1624298  19.1732101
  98.3960190 172.7208099  18.2681389  97.7904282 174.5462189  19.2408657
  97.9409943 174.9219208  20.2529354  98.6326523 175.4455719  18.2705536
  98.1791229 176.4303131  18.1578445  99.5787430 175.6819305  18.7575455
  98.9059448 174.9621277  16.8211975  98.4328461 173.8369141  16.5067673
  99.4167938 175.7668610  15.9883642  96.3434753 174.6942444  18.9060516
  95.6994476 175.7477264  19.0409813  95.7255249 173.6243134  18.4056759
  96.2649765 172.8166962  18.1284370  94.2717667 173.5484314  18.1777954
  94.0207214 174.4008331  17.5465317  93.7950439 172.2141113  17.5082397
  94.0241928 171.3894043  18.1831226  92.7424698 172.2455292  17.2268295
  94.5510025 172.0568237  16.2089844  94.5910797 172.9366913  15.5668554
  95.5422516 171.8263397  16.5993919  93.9413757 170.6514435  15.1701221
  92.3095322 171.1859741  14.4870958  92.3669662 172.1558990  13.9930887
  91.9542694 170.5096893  13.7095842  91.6615448 171.1914368  15.3635550
  93.5222702 173.7107086  19.4889698  94.0060806 173.0509796  20.4219322
  92.3877335 174.3618927  19.5856895  92.0368347 174.9159851  18.8176060
  91.5927505 174.4884338  20.8286228  92.0785980 173.9190521  21.6210022
  91.6180191 176.0170288  21.2289200  92.6322479 176.2010498  21.5832882
  91.4655304 176.5584412  20.2952595  90.6247330 176.3997498  22.2140217
  91.0602493 176.9394989  22.8777885  90.1412811 174.0301666  20.5375252
  89.5646133 174.4863129  19.5436230  89.4760818 173.2156219  21.4064808
  88.0848770 172.8132782  21.2564449  87.8909302 172.3974609  20.2677174
  87.5153046 173.6693420  21.6181927  87.8396988 171.7063293  22.3046989
  88.1138535 170.7173157  21.9375858  86.8148499 171.7220001  22.6755733
  88.8219986 172.1264343  23.4063683  89.1159058 171.3395081  24.1009655
  88.3164749 172.9422455  23.9230957  90.0505447 172.6465149  22.6242943
  90.5368958 173.4624634  23.1588879  91.0019684 171.4634399  22.4329643
  90.9039307 170.8609772  21.3763847  91.8257217 171.1325836  23.4283257
  91.7531509 171.7116241  24.2526703  92.8224792 169.9496918  23.3567944
  93.3682938 170.1470032  22.4341621  93.8098221 170.0186310  24.6108685
  94.2585297 171.0028076  24.4760799  93.1611938 170.0070801  25.4867935
  94.8700562 168.9837341  24.6813164  95.3755341 169.1024475  25.6396999
  94.4531937 167.9766541  24.6706924  95.9421616 169.0650177  23.5975857
  95.8349228 169.7106171  22.5600414  97.0734024 168.3785553  23.8232689
  97.7999496 168.4433289  23.1246758  97.1563034 167.7554474  24.6138210
  92.1344681 168.5896454  23.3016491  92.7268982 167.5874786  22.9110451
  90.9056702 168.5164337  23.8535500  90.4143143 169.3767395  24.0498619
  90.1044388 167.3244781  24.2634869  90.3200150 166.5002747  23.5835457
  90.4918137 166.9571228  25.7116909  89.8237915 166.1556396  26.0271263
  91.5495682 166.6984406  25.6633663  90.3627930 168.0601196  26.7665825
  90.8155594 168.9952698  26.4370346  89.2981186 168.2861176  26.8256969
  90.7092819 167.5667267  28.2015228  90.2934952 168.2443848  28.9471741
  90.3528061 166.5461426  28.3409195  92.1978760 167.5513458  28.4210777
  92.6023560 166.8886871  27.6559734  92.6302414 168.5463104  28.3151512
  92.5784760 166.8513641  29.7178574  92.2431946 165.9041290  29.8200474
  93.5763702 166.9566040  29.8328438  92.2454529 167.4317780  30.4743786
  88.6176834 167.6122589  24.1698513  88.0941620 168.6916962  24.5311527
  87.8914871 166.5685730  23.7648811  88.3752975 165.7303314  23.4761009
  86.4253159 166.4995422  23.8549900  86.0965195 166.8441467  24.8354187
  85.7295151 167.4742126  22.8474903  84.6912079 167.6466217  23.1308479
  86.2375107 168.4305420  22.9719448  85.7590790 167.1291962  21.3998222
  86.8519135 167.6250000  20.6317520  87.5440674 168.3628082  21.0098705
  86.9906464 167.3054810  19.3046970  87.7562408 167.6762695  18.6392784
  86.0429230 166.4486694  18.7108192  86.2756042 166.1254578  17.7069321
  84.8757935 166.1125488  19.4046707  84.0823212 165.5569763  18.9270115
  84.7374954 166.4837036  20.7299881  83.8238449 166.2280121  21.2459927
  85.8829422 165.1059418  23.7743397  86.6388016 164.1758575  23.5383224
  84.6049042 164.9209595  23.8661366  84.1205292 165.7650604  24.1362801
  83.9202423 163.6781921  23.6720276  84.6228943 162.9863892  23.2075024
  83.4524536 163.0361023  24.9915771  82.5332642 163.5094910  25.3366852
  83.1632080 161.9999847  24.8158131  84.4074478 163.0301361  26.1136456
  84.7950745 164.1289825  26.8240891  84.3659668 165.1037292  26.6448498
  85.7056580 163.8173676  27.7701035  86.1789627 164.4374695  28.4116268
  85.8521042 162.4156036  27.8313522  86.6031799 161.5914001  28.6715565
  87.1627884 162.0867310  29.4512272  86.6006088 160.1508179  28.4385605
  87.1041718 159.4789124  29.1177998  85.8915863 159.6774292  27.3216038
  85.8414841 158.6369171  27.0366135  85.1973343 160.5633240  26.4655075
  84.6676559 160.1262054  25.6319771  85.1409531 161.9528656  26.7096939
  82.7639465 163.8451996  22.6749897  82.0344620 164.8457031  22.7572479
  82.6911163 162.9509583  21.7299232  83.2923050 162.1397247  21.7536945
  81.5680313 162.8141785  20.7375679  80.9137955 163.6594086  20.9512424
  81.8440933 162.8460999  19.6835842  80.7755814 161.5378418  21.0194530
  81.1825638 160.4303741  20.7874260  79.6288147 161.6972656  21.6841507
  79.3026352 162.6516113  21.7381668  78.8098907 160.6926270  22.3083229
  79.3599701 159.7626495  22.4519730  78.3683624 161.2019653  23.6767807
  77.6706238 162.0342865  23.5844460  77.8411789 160.4369965  24.2468491
  79.4479446 161.7276154  24.6262836  80.0633850 162.4960938  24.1585407
  78.8268204 162.3186340  25.9072437  78.3237839 161.5427094  26.4842968
  79.6195602 162.6932068  26.5548267  78.1032181 163.0804596  25.6171951
  80.3853455 160.6011810  25.1340656  80.8370590 160.1136017  24.2701702
  81.1720734 161.0333710  25.7524395  79.7798233 159.9250488  25.7376156
  77.4745712 160.3338776  21.5704784  76.9234543 161.3449860  21.1703548
  77.0788422 159.0856171  21.2877922  77.5529022 158.3300171  21.7615185
  75.9638748 158.7377777  20.4429092  76.0189438 159.3276825  19.5279922
  76.0115967 157.2311859  19.9918404  75.0220337 157.0722809  19.5633392
  76.9867859 156.9829865  18.9342251  77.9866562 157.3414307  19.1789398
  77.0105057 155.9443970  18.6042900  76.7038727 157.5818176  18.0685062
  76.2858887 156.4128265  21.1278095  75.7154160 155.6434479  21.0629234
  74.7005386 158.9958801  21.1882133  74.4785385 158.6335754  22.3284016
  73.8538666 159.8147736  20.5131035  74.1414032 160.0333710  19.5698986
  72.6284561 160.4029694  21.0287037  72.8717804 160.6169739  22.0694218
  72.3377151 161.7478180  20.2615299  71.7213287 162.3975372  20.8828564
  73.3127060 162.2105408  20.1086044  71.6329346 161.5656281  18.9246082
  72.2258911 162.1497040  18.2207813  71.5970688 160.5174255  18.6278229
  70.1607285 162.0695801  18.9110641  69.9608917 163.0380859  19.3694935
  69.8321381 162.3519897  17.9108696  69.2044296 161.1214142  19.4175377
  69.1316223 161.1237488  20.4249058  68.5244751 160.1430206  18.7840500
  68.6681290 159.8278961  17.5553093  69.3072891 160.3483887  16.9716530
  68.0035172 159.1542358  17.2023544  67.6137848 159.4776611  19.5215473
  67.3010254 159.7761841  20.4343300  66.9546967 158.8771667  19.0471020
  71.4379196 159.3968201  21.0977535  70.4891663 159.4911346  21.8106308
  71.6415710 158.2490387  20.3634701  72.4378128 158.2688446  19.7424164
  70.9057541 156.9660187  20.4372768  69.8226089 157.0880280  20.4348602
  71.2755585 156.0905609  19.2547913  70.8116684 155.1042023  19.2522888
  70.8842316 156.6125641  18.3815899  72.6750107 155.8959198  19.3245029
  73.0348282 155.3488464  18.6224766  71.1431808 156.2117462  21.7863770
  70.2224197 155.7547760  22.3723125  72.3986130 156.2329254  22.3370266
  73.0814133 156.6776276  21.7402534  72.7534866 155.6226349  23.6697693
  72.0765305 154.7968597  23.8887005  74.1982651 155.0512695  23.5600052
  74.8718262 155.8980865  23.4283714  74.5165634 154.6091156  24.5040817
  74.3166504 154.3712006  22.7164574  72.5302353 156.5901642  24.9046955
  72.4791183 156.0868073  26.0028267  72.3185196 157.8374329  24.7204628
  72.5119858 158.2518768  23.8199596  71.9479446 158.7426300  25.8356037
  72.5325928 158.4296722  26.7006741  72.4435196 160.2486115  25.5146980
  71.9148102 160.5168610  24.6000366  72.1185684 160.8586273  26.3575363
  73.9968643 160.4066620  25.3919067  74.4028702 159.6531372  24.7170219
  74.2823257 161.8332214  24.8508320  73.7870941 162.5212250  25.5360317
  75.3624954 161.9679565  24.9073467  73.8767014 161.9445648  23.8452606
  74.6317444 160.2708893  26.7313099  74.5295181 159.2860413  27.1870842
  75.6922607 160.4786682  26.5890636  74.1983185 161.0056610  27.4098072
  70.4442673 158.7639008  26.2326698  69.5964355 158.6349640  25.4028969
  70.2283554 159.0146332  27.5421371  71.0174713 158.9406128  28.1681690
  68.8765030 159.2328186  28.1851749  68.1603699 159.3206940  27.3681431
  68.4557419 157.9620514  28.9174976  68.5035172 157.1083374  28.2414856
  69.1868896 157.8426056  29.7170391  67.0643082 157.9312592  29.5275536
  67.0401382 158.8396454  30.1295185  65.9280396 157.8900757  28.5053539
  65.9767609 157.0086670  27.8659363  64.8948669 157.9694519  28.8435192
  66.1397095 158.6728210  27.7769299  66.7874680 156.8003998  30.4616566
  67.4045258 156.8483582  31.3588924  65.7473907 156.8815308  30.7775040
  66.8573685 155.8160400  29.9987888  68.8514328 160.4755096  29.1176109
  69.6411667 160.5364532  30.1022606  67.8621292 161.4098358  29.0451317
  67.0923691 161.7180328  27.8794956  66.1036301 161.2797852  28.0152969
  67.5305023 161.2311554  27.0082359  67.0532303 163.2469788  27.7382774
  66.0754166 163.4755402  27.3143234  67.8590698 163.6562347  27.1289787
  67.1582565 163.8144531  29.1183777  66.1505737 164.1644592  29.3423710
  67.8604202 164.6422272  29.2176819  67.6928482 162.6221924  29.9375935
  68.6532211 162.9602051  30.3268452  66.8423538 162.2839050  31.1559486
  65.9019852 162.9916382  31.4383049  67.2224884 161.2893372  31.9824028
  68.1092148 160.8397369  31.8044147  66.5398941 160.9237213  33.2557182
  65.4687500 160.8141479  33.0861473  67.0400620 159.5467529  33.8478546
  67.0074997 158.8186340  33.0373688  68.1000214 159.7157898  34.0376015
  66.2001953 159.2326050  35.1284943  66.3263321 160.0523987  35.8356781
  65.1422348 159.2458191  34.8664818  66.5874710 158.0146027  35.8596001
  67.6710587 157.8972626  35.8724709  66.1826096 158.0663605  36.8703003
  65.9366379 156.8101349  35.2610474  65.6592941 156.7901917  34.2900810
  65.6685486 155.7549591  35.9874611  65.8977432 155.7156372  37.2376823
  66.1603546 156.5260925  37.7801857  65.7675705 154.8762970  37.7841759
  65.1913528 154.6707001  35.4291801  64.8754196 154.7099457  34.4706688
  64.7201920 154.0024872  36.0221329  66.7784500 162.0250397  34.3074455
  65.7771912 162.5466461  34.8122253  67.9598236 162.3712158  34.6184082
