Cpptraj Generated Restart                                                       
 6188  4.0000001E-01
  91.3118286 180.9396820  23.7514744  91.9385223 181.2442169  23.0202980
  91.7123260 180.0170593  23.8436165  91.3284988 181.4542084  24.6204243
  89.9109802 180.8380737  23.1065273  89.2144318 180.6808777  23.9300632
  89.4702225 182.2212524  22.5116596  90.1510086 182.4376526  21.6883736
  88.5115738 182.1728668  21.9951859  89.4592896 183.4911957  23.4007149
  88.6959152 183.4493256  24.1776390  90.4110260 183.6259003  23.9146690
  89.3370743 185.1109924  22.5873585  87.5424500 185.1552734  22.1180305
  86.9950562 184.6217804  22.8951073  87.2567062 186.2043610  22.1945782
  87.3035812 184.8175354  21.1095810  89.8327942 179.6062469  22.1874008
  90.8625946 179.0506592  21.7898960  88.6587448 179.2203522  21.7580166
  87.8154755 179.7041779  22.0317135  88.5379639 178.1513824  20.6933327
  89.0840988 177.2598572  21.0015736  87.0425873 177.7001953  20.6102638
  86.4609680 178.6163177  20.5076389  86.7884064 176.8744049  19.3804512
  87.3807068 175.9636383  19.4686222  85.7227020 176.6575470  19.3073463
  87.0426788 177.4299622  18.4777832  86.6617889 177.0363312  21.9202881
  85.6449280 176.6950378  21.7263393  87.3328018 176.1953888  22.0953388
  86.4424057 177.8071289  23.1687241  85.8695831 178.6949463  22.9008389
  85.8948593 177.1048126  23.7972469  87.4183655 177.9776459  23.6231728
  89.1208344 178.6215973  19.3420563  89.1184921 179.8254242  19.0248852
  89.5939484 177.7056122  18.5002422  89.5982666 176.7470398  18.8183784
  90.3400192 178.0984039  17.2528553  90.0817871 179.1003723  16.9101372
  91.8444061 178.2369385  17.5768814  92.3534241 178.7969513  16.7924194
  91.8936996 178.9497375  18.4000378  92.6334534 177.0186005  17.7941513
  92.2592316 175.8655090  17.6561375  93.7904968 177.1821899  18.4376965
  94.3344345 176.3926544  18.7552776  94.2691040 178.0714264  18.4552822
  90.0366135 177.1351776  16.0977879  90.3695679 177.4488831  14.9480209
  89.4033279 175.9913483  16.2861385  89.0533066 175.7421417  17.2001877
  89.0687714 175.0942841  15.2248812  89.9326477 174.8266296  14.6164541
  88.4566422 173.8103638  15.8321819  89.2003403 173.2812042  16.4280033
  87.6135101 173.9846649  16.5006447  87.9358749 172.7924805  14.9243670
  88.7911606 171.8842926  14.2713766  89.8693085 171.9265137  14.3186178
  88.2846680 170.8465424  13.4832935  88.8991547 170.0605774  13.0696926
  86.9240875 170.7754974  13.2561283  86.4781113 169.9532928  12.7162218
  86.0289917 171.7813873  13.8236046  84.9588699 171.6956024  13.7057610
  86.5680923 172.7799988  14.6369085  85.9831314 173.5251465  15.1555500
  88.0424042 175.8771362  14.2700338  87.1300735 176.5073853  14.7401505
  88.2205582 175.7353516  12.9327726  89.0233459 175.2306824  12.5850010
  87.1769485 176.2212372  11.9888687  86.9642715 177.2547760  12.2621279
  87.8636322 176.3047333  10.6223269  88.7837143 176.8706818  10.7681179
  88.2088699 175.3230896  10.2978649  86.9580078 176.8587341   9.5415049
  85.7465820 177.0560913   9.7752237  87.4270248 177.0876923   8.4193115
  85.8744965 175.3484497  12.0472307  85.8407059 174.2270813  11.4912205
  84.8033295 175.8846588  12.6605473  84.8815918 176.7635498  13.1520185
  83.4881058 175.0956879  12.8371353  83.7785339 174.2654266  13.4808760
  82.4926300 175.8402252  13.7400770  81.5440292 175.3033600  13.7442236
  83.0832367 175.9539032  15.1588097  84.0280762 176.4934387  15.0934887
  82.3940582 176.5104980  15.7938938  83.4010162 174.9926147  15.5626049
  82.3686600 177.1758881  13.2936249  81.8034286 177.6430664  13.9131927
  82.8552246 174.5797577  11.5262938  81.9411469 173.7630157  11.5336523
  83.2877655 175.0976715  10.3766422  84.0273361 175.7845001  10.4141083
  82.8759918 174.5979614   9.0742807  81.7896957 174.5160522   9.0374832
  83.1289215 175.6283264   7.9307241  82.4689178 175.4486542   7.0820737
  82.8861923 176.6348572   8.2714233  84.4338226 175.7461700   7.4805155
  84.9560089 176.0988159   8.2047844  83.3939285 173.2635193   8.6356268
  82.7165909 172.6014252   7.8630414  84.5561142 172.8236237   9.1600227
  85.0006027 173.4814301   9.7843761  85.2406845 171.5356598   8.8153629
  85.3919983 171.5842590   7.7370114  86.5989532 171.4134064   9.5190935
  86.5630112 171.5632324  10.5981483  87.0179443 170.4136810   9.4046288
  87.6781006 172.4718933   9.0917864  87.2634964 173.4698181   9.2343779
  88.9019852 172.4519653   9.9624834  89.2127304 171.4079742  10.0024977
  89.6776352 173.0499268   9.4840250  88.6431351 172.8184052  10.9558773
  88.0709534 172.3411407   7.5961609  87.1887436 172.5005798   6.9761710
  88.7256470 173.1492004   7.2697730  88.5064316 171.3562927   7.4272695
  84.3645706 170.2635651   8.9190025  84.3795395 169.4238281   8.0052290
  83.5488586 170.0601807   9.9905233  83.4946213 170.8064728  11.2282667
  82.6967621 171.5489655  11.2131052  84.4203873 171.3434448  11.4349728
  83.0817642 169.7871246  12.2944698  82.6559296 170.3448334  13.1285810
  83.9166718 169.1537781  12.5942984  82.0964661 168.8845673  11.5506792
  81.1122437 169.3520355  11.5802603  82.0768738 167.9111786  12.0408278
  82.6160431 168.8804321  10.1110630  83.2676620 168.0176392   9.9729509
  81.5252838 168.9267731   9.0643091  81.1528244 167.8518677   8.5977421
  80.9356842 170.0950165   8.7805901  81.3460693 170.9511414   9.1251774
  79.7094879 170.2358551   8.0763941  79.0385590 169.4701996   8.4659176
  78.8921890 171.5529938   8.1998320  77.9980392 171.3880768   7.5986619
  78.4975052 171.8149719   9.6214609  79.4562683 172.0530853  10.0820770
  77.7064514 172.5644531   9.6463413  78.2312622 170.8935089  10.1392784
  79.5942307 172.7178802   7.8163128  79.5382233 172.7962952   6.8611612
  79.8450470 170.0346832   6.5689626  78.9044495 169.6533356   5.9257822
  81.0598831 170.1485138   6.0065932  81.8063583 170.3376160   6.6601310
  81.4129028 169.7116241   4.6486077  80.5539856 169.9026642   4.0052829
  82.5467529 170.5092010   4.0249205  82.5307770 170.2574615   2.9645078
  82.2724762 171.5427856   4.2360549  83.8304291 170.2167969   4.5734048
  84.4824219 170.8793335   4.3334918  81.6859665 168.1746063   4.5075712
  81.6408691 167.6858978   3.3590703  81.7692413 167.4165344   5.5726562
  81.5907669 167.9023590   6.4399600  81.9698715 165.9336243   5.6930356
  82.1755676 165.7246857   6.7428603  80.7096329 165.1950989   5.2860060
  80.4844055 165.4352264   4.2469149  80.9632645 164.1450653   5.4315963
  79.5839691 165.5802002   6.2105718  79.4388733 165.1066132   7.4855847
  78.3453140 165.6060791   8.0075150  78.0171814 165.2748718   8.9816961
  77.8310318 166.5484161   7.1571169  76.9602966 167.0261383   7.3406839
  78.5978088 166.5350189   5.9934545  78.4464798 167.1056976   5.0891209
  83.2209625 165.3621216   5.0327344  83.1660767 164.4339447   4.2023916
  84.3488693 166.0112000   5.2810788  84.2408142 166.8070831   5.8934369
  85.6047134 165.7151642   4.6425161  85.5517197 166.0331879   3.6012897
  86.7342300 166.4746552   5.3433766  86.7400284 166.2943726   6.4183483
  87.6702042 166.1419678   4.8946390  86.5638504 167.9785614   5.0654111
  86.5041580 168.0811920   3.9818947  85.5561066 168.2771454   5.3542151
  87.8025665 169.1078949   5.8239274  89.3170700 168.4506378   5.0434623
  89.2279663 168.4906464   3.9578464  90.2056122 168.9721680   5.3992786
  89.3383255 167.3685760   5.1731076  85.9975510 164.2397919   4.6011133
  86.3399506 163.6914520   3.5769529  85.8448715 163.5830231   5.7529655
  85.4244843 164.0795441   6.5255280  86.2273636 162.1480560   5.9068284
  87.2963562 161.9358521   5.9250717  85.7568588 161.6372070   7.3401155
  86.0791779 160.6179504   7.5530219  86.1935501 162.2474213   8.1307163
  84.2445068 161.5214844   7.5160046  83.5301590 162.7670288   7.8044438
  84.0581131 163.6866150   8.0094776  82.1554108 162.7271118   7.8282256
  81.6283875 163.6504517   8.0181971  81.3744125 161.5384521   7.7439570
  80.0349274 161.4767609   7.8144341  79.6707458 162.3592072   7.7132273
  82.0536041 160.3206635   7.5096226  81.5621338 159.3822174   7.2994084
  83.5160141 160.3253632   7.3354673  84.0426865 159.4411316   7.0081310
  85.5730820 161.2103729   4.9106855  86.1747894 160.1761627   4.6432481
  84.3846512 161.5448303   4.2948389  83.9112549 162.3829651   4.6006632
  83.7277832 160.7436371   3.3624244  83.9193649 159.7169647   3.6744018
  82.2582169 161.0880890   3.4118004  81.8033600 160.9326630   4.3900909
  82.1865158 162.1455688   3.1574414  81.3093796 160.3829193   2.3837078
  81.7024841 160.3612213   1.3672954  80.9923401 158.9328003   2.7582836
  80.2372589 158.9201202   3.5442898  80.6270294 158.3461456   1.9153750
  81.9308624 158.4729767   3.0678556  80.0359879 161.1758728   2.2789900
  80.2233429 162.1569824   1.8426161  79.3725510 160.6350861   1.6040822
  79.6174850 161.1787872   3.2854443  84.3321152 160.8644562   1.9839303
  84.1543274 159.9216461   1.1981688  85.0525360 161.9413300   1.7038878
  85.2412491 162.6573792   2.3907282  85.6123962 162.1360321   0.3570101
  86.6761780 161.8989563   0.3407614  85.0745773 161.5112610  -0.3560917
  85.4393387 163.5582886  -0.1309737  84.3089218 164.0153656  -0.3353158
  86.5581589 164.2119751  -0.4758863  87.4326401 163.7195282  -0.3623869
  86.6585922 165.3565826  -1.3787029  85.8357010 166.0100555  -1.0890082
  88.0070343 165.9781494  -1.0579720  87.8212662 167.0475159  -0.9576235
  88.3319626 165.7322693  -0.0470013  89.0041885 165.7061768  -2.0375845
  89.8142929 166.0215607  -1.6303349  86.4557724 165.0162048  -2.8898630
  86.4779739 163.8488159  -3.3305349  86.2257919 166.0298309  -3.7336638
  86.3243408 166.9797211  -3.4048948  85.8935852 165.8291779  -5.1626973
  85.6932449 166.8267670  -5.5535598  87.1656113 165.3299408  -5.9593849
  88.0957947 165.7663727  -5.5955262  87.3329849 164.2635956  -5.8076987
  87.2199936 165.5737457  -7.5130892  86.3642578 166.3182373  -8.0618038
  88.1633682 165.0932159  -8.1893768  84.6101456 164.9986725  -5.4724441
  84.6688004 164.0536194  -6.3383288  83.5337296 165.1886139  -4.7697101
  83.5906296 165.9733276  -4.1363969  82.2176895 164.7308502  -5.2359147
  82.3450241 163.7723846  -5.7391582  81.2323380 164.5823517  -4.0882869
  80.9304886 165.5635071  -3.7217925  80.3683777 164.0503540  -4.4866085
  81.8722153 163.7694855  -2.9234877  82.4219513 162.9102020  -3.3075831
  82.6605911 164.4213257  -2.5470929  81.0084381 163.3746643  -1.4466890
  79.6744308 162.3038025  -2.0702171  80.2004547 161.4962616  -2.5794144
  79.1559753 161.8215179  -1.2415452  78.9621811 162.9526367  -2.5799332
  81.6309509 165.6608734  -6.4026556  81.9736176 166.8390045  -6.5770378
  80.7307129 165.0993195  -7.2567549  80.4976654 164.1289825  -7.1011128
  79.7925034 165.8099670  -8.1155434  80.2902756 166.5965424  -8.6826611
  79.1796646 164.8282471  -9.0933809  79.9430847 164.2536011  -9.6178484
  78.6790543 164.0326843  -8.5415001  78.2365417 165.3633728 -10.1187696
  77.4616852 165.8493652  -9.5258913  78.6156921 166.1856232 -10.7256021
  77.5877838 164.2378693 -11.0024176  77.5733795 162.9863434 -10.6678343
  77.1186523 164.6337280 -12.0694599  78.7116394 166.5191803  -7.2354312
  78.3693466 166.1038513  -6.1102290  78.0550537 167.5472107  -7.7898669
  78.4062042 167.8856354  -8.6743212  76.9450150 168.3005371  -7.1698461
  76.6046753 167.7904510  -6.2686934  77.4607544 169.6119385  -6.6019011
  77.6979523 170.2904358  -7.4213409  76.6471786 170.0406799  -6.0167613
  78.6744690 169.4107971  -5.6553369  78.5363083 168.5405426  -5.0137157
  79.5384369 169.2144775  -6.2902546  79.0485535 170.6165009  -4.7815299
  78.3717575 171.6608429  -4.8659444  80.0800400 170.5324097  -4.0659680
  75.6465530 168.5637360  -7.9844222  75.7284012 168.6817474  -9.2076111
  74.5037613 168.6301575  -7.3334250  74.5921860 168.4147186  -6.3506413
  73.2162933 168.9998016  -7.9669247  73.2954330 169.0659943  -9.0520306
  72.2579422 167.8481445  -7.6382012  72.3024979 167.7611847  -6.5525894
  71.2443695 168.1710663  -7.8758640  72.6005554 166.4688721  -8.2076054
  72.1069412 166.1061096  -9.4684811  71.5356445 166.8156738 -10.0485973
  72.4274063 164.8679657  -9.9717131  71.9271088 164.4967346 -10.8539248
  73.3140640 164.0104675  -9.3043013  73.5759735 163.0503540  -9.7237854
  73.7430573 164.3954163  -8.0400429  74.3337173 163.7315369  -7.4262185
  73.3669891 165.6061707  -7.4591465  73.7796707 165.8722687  -6.4972272
  72.6475143 170.3499756  -7.3907604  72.4689713 170.5493164  -6.2003989
  72.4854584 171.3203888  -8.2256050  72.5312653 171.1314392  -9.2167158
  71.9786911 172.6670532  -7.9589467  72.0990601 172.8893890  -6.8986721
  72.8375778 173.6212311  -8.8309383  72.6383133 174.6843414  -8.6960783
  73.8655014 173.4278259  -8.5242338  72.7491379 173.3605347 -10.3315868
  73.2411270 172.2371674 -10.9702969  72.7544556 172.2774200 -12.2168016
  72.9366989 171.4370880 -12.8702841  71.9813919 173.3634338 -12.4112482
  71.4869995 173.5115814 -13.2794218  71.9396362 174.0408630 -11.1855364
  71.2358704 174.8372803 -10.9936218  70.4580841 172.9295197  -8.2906780
  69.8822403 173.9000549  -7.7407112  69.7969589 172.0434113  -9.0500870
  70.2924042 171.3368683  -9.5749111  68.3297882 172.0050201  -9.2680464
  67.8738708 172.9808350  -9.4354086  68.1759415 171.5468140 -10.2450256
  67.6092758 171.2998657  -8.0764923  68.0633698 170.2345123  -7.6163068
  66.6112671 171.9733887  -7.4467673  66.2476730 172.8326721  -7.8334789
  65.9087296 171.5104218  -6.1932306  66.5898132 170.8620300  -5.6420379
  65.5240250 172.7959290  -5.4202132  64.8974991 173.4606934  -6.0148902
  64.9038773 172.5016479  -4.5735044  66.7335358 173.5819397  -4.8397832
  67.2798309 173.9546051  -5.7062554  66.3243866 174.4008179  -4.2480693
  67.6064301 172.7488251  -3.9064541  66.9723816 172.2510681  -3.1727502
  68.0215988 172.0234070  -4.6061101  68.6700134 173.5730286  -3.2451470
  69.5737152 173.7156372  -3.6730294  68.6379929 174.2463226  -2.0727308
  67.5281830 174.4158020  -1.4379598  66.7470474 173.9161530  -1.8382944
  67.5164948 174.8780823  -0.5400380  69.6743469 174.8450623  -1.5540103
  70.5261765 174.8555145  -2.0965805  69.6511536 175.5250549  -0.8075675
  64.7118835 170.5941315  -6.4518099  64.1414566 170.4458923  -7.5328126
  64.2942657 169.8478394  -5.4296274  64.7238998 169.9869080  -4.5262003
  63.1768837 168.8501892  -5.5591574  62.7681351 168.8441772  -6.5696001
  63.6517143 167.4161224  -5.3273363  63.9832497 167.2286835  -4.3060379
  62.6681290 166.3382568  -5.8073592  62.3825035 166.5646820  -6.8346119
  63.0565834 165.3348236  -5.6332393  61.7769814 166.3670197  -5.1803660
  64.8113785 167.1498566  -6.0971937  64.6844254 166.2555237  -6.4222641
  62.0991898 169.2637177  -4.5631166  62.3156357 169.3130646  -3.3818755
  60.9506569 169.5472717  -5.0979066  60.9038544 169.5409698  -6.1068020
  59.7422409 169.8191376  -4.2535472  59.9062958 169.2536469  -3.3362713
  59.6043358 171.3444519  -3.9453526  59.8715248 171.8504944  -4.8730540
  58.5919647 171.6986237  -3.7510076  60.3682747 171.7409973  -2.6982777
  61.4161797 171.4570770  -2.7951334  60.2576637 173.2615356  -2.4567130
  59.2084961 173.5545807  -2.4183247  60.7930946 173.6357727  -1.5841510
  60.6828346 173.8415222  -3.2758334  59.8112869 171.1547394  -1.3998865
  60.0949516 170.1026917  -1.3708956  60.3544540 171.7482300  -0.6644703
  58.7310677 171.2605743  -1.2997576  58.4558792 169.3133545  -4.9251003
  58.3558655 169.2282257  -6.1385779  57.5041351 168.8756256  -4.1184273
  57.6296463 169.0419312  -3.1301501  56.1026497 168.3945923  -4.4371634
  55.9722824 168.2576447  -5.5106382  55.9453773 167.0181122  -3.7186697
  55.6979828 167.1236420  -2.6623755  55.0386925 166.5993347  -4.1553135
  57.0796814 165.9605865  -3.9708116  57.8851585 165.2440338  -3.0601242
  58.6177025 164.4287567  -3.7900448  59.4207916 163.7927551  -3.4480596
  58.3222466 164.4970703  -5.0489302  58.6846313 163.9016113  -5.7798252
  57.2878036 165.4296722  -5.1788116  56.8916092 165.8578339  -6.0877209
  55.0403404 169.4206848  -3.9936714  55.2486687 170.1870117  -3.0252681
  53.7961617 169.4194794  -4.5415821  53.5914650 168.8472443  -5.3482833
  52.7332687 170.2303619  -4.0018835  53.1575432 171.2098846  -3.7814167
  51.5973206 170.4595795  -4.9919105  51.1419144 169.5246582  -5.3184724
  50.8392143 171.0625610  -4.4921198  52.0172691 171.3060150  -6.1558228
  51.8262596 172.5596008  -6.1001697  52.4237862 170.7095032  -7.1867776
  52.2817688 169.7283630  -2.6397858  52.3096809 168.5179596  -2.3033319
  51.8779907 170.6718140  -1.7405685  51.9212265 171.6227570  -2.0781074
  51.3757248 170.3560638  -0.4154481  52.1871986 169.8595123   0.1165666
  50.9808502 171.6213837   0.2567127  50.3324089 172.2259216  -0.3774470
  50.4311333 171.2970123   1.1402875  52.1991119 172.4641266   0.7382005
  53.2761612 171.8819275   1.1007171  52.2219353 173.6996613   0.7881147
  50.1760406 169.3602753  -0.4196744  49.2939987 169.3448334  -1.2957013
  50.2044563 168.5126801   0.5929667  50.9154701 168.6544647   1.2961482
  49.2403488 167.4248505   0.8894258  49.7492676 166.7201233   1.5470448
  48.0005379 168.0485992   1.5842476  47.7901154 168.9906769   1.0779853
  47.1478729 167.3982391   1.3890647  48.1522865 168.3479767   3.0625248
  48.7102432 167.4842072   3.7601745  47.6201591 169.4354095   3.4399643
  48.8504982 166.5655670  -0.3485806  47.7771606 165.9533691  -0.3875563
  49.6404991 166.5305481  -1.4038856  50.3659363 167.2302551  -1.4691380
  49.4886780 165.6316833  -2.5305350  48.4260368 165.4848480  -2.7237637
  50.1651764 166.2513275  -3.7472754  49.8404999 165.7059784  -4.6334324
  49.8416252 167.2879944  -3.8408964  51.5859489 166.0943298  -3.7748222
  51.9637260 166.7919617  -3.2342792  50.0062332 164.2089081  -2.1064231
  50.8566360 164.1545715  -1.2378770  49.3958931 163.1378326  -2.6202338
  48.7588158 163.2640839  -3.3937278  49.8439140 161.7733154  -2.4027967
  50.0570259 161.6333313  -1.3430392  48.7915573 160.7750244  -2.8292844
  47.8715019 161.1893005  -2.4170220  48.5410156 160.7923889  -3.8899598
  49.1596870 159.0890045  -2.2962017  48.9055367 159.3783722  -1.0169085
  51.1601334 161.6267853  -3.2187045  51.1544876 162.0956421  -4.3584723
  52.1471596 160.8429260  -2.7185926  51.9314156 160.4628754  -1.8080362
  53.3194885 160.4924774  -3.5188177  53.0606804 160.5652313  -4.5751438
  54.4291458 161.5610352  -3.3315504  54.8008690 161.4896851  -2.3093808
  55.3182831 161.1924133  -3.8430727  54.1313210 163.0100861  -3.6622539
  53.3002014 163.3478851  -3.0432017  55.0248260 163.6019287  -3.4635856
  53.7889938 163.2599640  -5.1326833  54.1851311 162.5342560  -6.0343575
  53.0127831 164.2345886  -5.5649095  52.7035637 164.1842194  -6.5250912
  52.6071777 164.9470673  -4.9750247  53.8321533 159.0309296  -3.2539604
  53.4361801 158.4927979  -2.2420428  54.6899414 158.4719238  -4.0838575
  54.8919144 158.8737335  -4.9882154  55.3285217 157.2140350  -3.8889792
  55.1264839 156.9310150  -2.8559356  54.7825127 156.1439819  -4.8167634
  53.7048912 156.0744934  -4.6684241  55.0681839 156.2156982  -6.3054829
  56.1378517 156.3295746  -6.4813786  54.7133102 155.3354797  -6.8415737
  54.5339813 157.1176605  -6.6041093  55.3770638 154.8082123  -4.3865962
  55.0172539 154.6132355  -3.3763366  54.9567947 154.0087738  -4.9968228
  56.4661064 154.7698517  -4.4114003  56.8185387 157.3933716  -4.0763392
  57.2599945 158.0575409  -5.0036449  57.6259804 156.8500519  -3.1069291
  57.1680145 156.3829956  -2.3373713  59.0959244 157.1196136  -2.8784413
  59.5199966 157.3668518  -3.8516486  59.2712860 158.3768005  -2.0233355
  58.9650040 158.0880890  -1.0178800  60.7215767 158.8958740  -1.9905922
  61.0312195 159.5028381  -2.8413696  60.8503113 159.5139923  -1.1020783
  61.4789772 158.1125641  -1.9611999  58.3452263 159.5673065  -2.4021888
  58.5883522 159.7513580  -3.4486682  57.3423271 159.1676483  -2.2519891
  58.4498253 160.8816833  -1.6396986  59.2454910 161.5407715  -1.9869862
  57.5414696 161.4759827  -1.7386477  58.5321159 160.7077026  -0.5668199
  59.8591118 155.9102936  -2.2653363  59.3182144 155.3025970  -1.3404995
  61.0486565 155.4806824  -2.7728090  61.6594810 155.9507141  -4.0265555
  61.9474983 157.0018921  -4.0140238  61.0244179 155.8063660  -4.9006009
  62.9796448 155.2211151  -4.1612358  63.8093185 155.8530273  -3.8443201
  63.1792183 154.8164673  -5.1534710  62.8825493 154.0167084  -3.2091296
  63.8402710 153.6989136  -2.7969670  62.4873772 153.2111359  -3.8280132
  61.8775902 154.4301453  -2.1319163  61.0723953 153.7062988  -2.0061243
  62.5107460 154.8656311  -0.7581488  62.9143105 155.9877472  -0.6166546
  62.5882111 153.8718262   0.1691732  62.1411705 152.9785614   0.0197772
  63.3536034 153.9568634   1.4068676  63.6112022 154.9920502   1.6307681
  62.6023636 153.4511566   2.6846137  62.1712151 152.4926147   2.3958073
  63.4155807 153.3031616   3.9954901  63.8915558 154.2187653   4.3465147
  62.8301315 152.9641571   4.8501420  64.1756897 152.5335693   3.8610699
  61.4289017 154.3679962   3.0092084  60.8375931 154.3468781   2.0937741
  60.8005791 153.9516602   3.7965968  61.7597733 155.3651886   3.2994406
  64.6308365 153.1992950   1.2124959  64.5384140 152.0311279   0.8394532
  65.7777023 153.7265472   1.7195327  65.9393692 154.7056885   1.9072438
  66.9984207 152.9051971   2.0135608  67.0688171 152.2861481   1.1191740
  68.2386627 153.7854462   2.0489118  68.0105133 154.5111694   2.8295336
  69.1703873 153.3100433   2.3554654  68.6799545 154.4813690   0.6823559
  67.8234177 154.9230957   0.1731079  69.5491791 155.7015076   0.9962034
  70.5160294 155.4239807   1.4160702  69.6790695 156.4073029   0.1757860
  68.9917679 156.3640442   1.6583569  69.4840775 153.4879303  -0.2111379
  68.9718628 152.5271606  -0.2626190  69.7834549 153.8965149  -1.1762992
  70.3861389 153.2952728   0.3696019  66.8791885 151.9659729   3.2797060
  66.6495361 152.5627289   4.3310089  67.0744781 150.6349030   3.2488880
  67.3485718 149.8368073   2.0795994  68.2956619 150.1623077   1.6492853
  66.5751648 149.9127808   1.3152834  67.4424667 148.4058380   2.5804079
  68.4802322 148.1218109   2.7549703  67.0569763 147.7233582   1.8229516
  66.5450363 148.4014130   3.8475132  66.8016129 147.6121979   4.5541863
  65.5180206 148.2781982   3.5037673  66.7565002 149.8106842   4.3899627
  65.7557678 150.1215057   4.6900082  67.6996231 149.9125519   5.5799546
  67.3101807 149.7603302   6.7385912  68.9977036 150.2199249   5.3295360
  69.2515259 150.3859100   4.3661442  69.9668045 150.4398651   6.4690814
  69.7233200 149.7755280   7.2982202  71.3195953 149.8550873   6.0402207
  71.5882263 150.4165344   5.1454005  72.0698090 150.1793823   6.7614141
  71.4464340 148.3668518   5.7785621  70.6980591 147.6642761   4.8562326
  71.0568619 146.3615417   4.9263444  70.5851059 145.5252686   4.4318824
  71.9387665 146.2620239   5.9525948  72.3071518 145.3378906   6.1268368
  72.1989059 147.4946289   6.4778337  72.9094772 147.7313995   7.2559247
  69.9811630 151.8098755   7.1858582  70.8059158 151.9314117   8.0929613
  69.1682663 152.7923279   6.6740026  68.6914444 152.5247345   5.8248096
  68.9780121 154.0754700   7.3826847  69.9166031 154.4499359   7.7912359
  68.4003677 155.1298676   6.4164996  67.4441223 154.7845764   6.0234876
  68.2783813 156.4962158   7.1532311  69.2718811 156.7583008   7.5170612
  67.9820251 157.3278656   6.5139861  67.5572968 156.3825531   7.9626889
  69.3904953 155.2048645   5.2585993  69.2183533 154.3457184   4.6102543
  69.1305618 156.0923920   4.6817074  70.3991776 155.2539368   5.6687870
  67.9171448 153.7872620   8.4750252  66.7688904 153.5561676   8.1956358
  68.3185959 153.9330139   9.7568703  69.2962494 153.8316193   9.9892797
  67.4504700 153.6806793  10.9812040  66.4197311 153.5031128  10.6743479
  67.8751144 152.3908539  11.7453337  68.8319702 152.6473389  12.2000313
  67.1442566 152.0752716  12.4898863  68.2002487 151.1622772  10.8773098
  67.3386307 151.1051636  10.2121363  69.0649414 151.3898315  10.2539139
  68.4799652 149.5898895  11.7187881  69.2596054 148.6208801  10.3988152
  70.1720428 149.0751648  10.0125742  69.5207672 147.6383514  10.7919273
  68.5279770 148.5800323   9.5918789  67.2931366 154.8535767  12.0074472
  66.3827362 154.8744049  12.8334427  68.1362610 155.8598480  11.8228769
  68.8679504 155.6949615  11.1464548  68.0737762 157.2098541  12.4474058
  67.6569519 157.0342712  13.4391394  69.4583740 157.8465729  12.6969481
  69.3459320 158.8239594  13.1661777  70.1528625 156.9344635  13.7738285
  70.4512939 155.9377441  13.4489040  71.0878906 157.3166504  14.1834021
  69.4653549 156.7983246  14.6086340  70.3179245 157.8736267  11.3909931
  69.6909714 158.1113739  10.5316267  71.0688629 158.6481934  11.5466251
  70.7449417 156.8715210  11.3514423  67.0587692 158.1337280  11.7149763
  66.8004684 158.0353699  10.5090857  66.4379959 158.9786224  12.5405798
  66.7735138 158.9375000  13.4923334  65.3890686 159.8646851  12.1005087
  64.8544922 159.2483215  11.3777208  64.5081177 160.1656036  13.2998018
  64.2671509 159.2153015  13.7762003  65.1454086 160.7802429  13.9355593
  63.2585945 160.9695435  12.9592657  63.5505409 161.8531647  12.3917561
  62.6860733 160.4344482  12.2016325  62.2989960 161.6006165  14.3323669
  62.4289970 160.2668152  15.5272074  63.4727440 160.2099304  15.8361778
  61.6680489 160.4159393  16.2932510  62.1887894 159.2919006  15.1030245
  65.9286423 161.1844482  11.4796362  66.5441208 162.0272217  12.1550388
  65.6585236 161.3479614  10.1758556  65.3161850 160.5274658   9.6965799
  65.9118805 162.5912170   9.4876585  66.9001312 162.9741058   9.7423553
  65.8326645 162.3320923   7.9657149  66.5389023 161.5294800   7.7532082
  64.8466415 161.9807129   7.6617427  66.1451340 163.5244293   7.0330362
  65.3999863 164.3009644   7.2058077  67.5794449 164.0224915   7.2355051
  68.3763809 163.2822723   7.1643395  67.8274155 164.7572021   6.4694753
  67.5769501 164.5231323   8.2037201  66.0839386 163.0701141   5.5371594
  65.0762253 162.7486572   5.2739587  66.4664841 163.8770752   4.9122076
  66.6729965 162.1575775   5.4454751  64.8921356 163.6664581   9.9981699
  63.6576004 163.4782715   9.9697800  65.3196564 164.9429626  10.2312479
  66.3031464 165.0670013  10.4247732  64.4685974 166.1472778  10.3999815
  63.4261284 165.8606873  10.2612944  64.7460785 166.8077850  11.7791443
  65.7687759 167.1848297  11.7745247  63.7645988 167.9851685  12.0171461
  62.7377090 167.6308441  12.1068563  64.1097412 168.4450378  12.9431601
  63.9105911 168.6827240  11.1924047  64.5970535 165.8408203  12.9750280
  65.3280029 165.0463257  12.8247261  64.9079819 166.4394989  13.8311882
  63.3144913 165.0655670  13.2018108  63.0621414 164.4283447  12.3542395
  63.4105110 164.4588013  14.1022091  62.4820786 165.7537842  13.3485870
  64.6982040 167.0723572   9.1806250  65.8911743 167.0892181   8.7823238
  63.7264442 167.7793274   8.5431137  62.2801361 167.8561707   8.7123680
  62.1149368 168.4385986   9.6187792  61.8904152 166.8453827   8.8328867
  61.7176704 168.4774170   7.4070745  60.8309059 169.0557556   7.6664767
  61.5752563 167.8095398   6.5575104  62.8872337 169.3888855   7.0825071
  62.8768158 170.2931976   7.6909537  62.8983269 169.6952515   6.0365062
  64.2038345 168.7139130   7.4278197  64.4717484 168.1277313   6.5487790
  65.2970657 169.6404572   7.9058256  65.4287720 170.0223236   9.0857286
  66.0513687 170.1309814   6.8729420  65.7960358 169.9497681   5.9126987
  67.1764374 171.0448303   7.1412969  67.3558884 171.6004181   6.2208548
  66.9098053 171.7384186   7.9387484  68.4850922 170.3211060   7.6043887
  69.5856094 170.9158173   7.5156589  68.3664703 169.0775146   8.1090250
  67.4395828 168.6774750   8.0782242  69.5692825 168.2294312   8.6332970
  70.1751480 168.8682709   9.2758636  69.0266495 167.0971832   9.5537176
  68.4058533 167.5646515  10.3180361  68.3324585 166.4714508   8.9927816
  70.1025085 166.3078918  10.2973995  70.7492447 165.8666077   9.5390425
  70.7360764 166.9476929  10.9116840  69.4960632 165.1762848  11.1549826
  68.2865143 165.0873871  11.4861431  70.2606506 164.1437836  11.5402317
  69.9314346 163.5216827  12.2646046  71.2082138 163.9880829  11.2272148
  70.2820053 167.7233734   7.4311504  69.7095108 167.0130310   6.5937953
  71.6062393 167.8166656   7.3729348  72.0760880 168.4144135   8.0377865
  72.4425201 167.1509247   6.3462882  71.9431992 167.1231079   5.3777776
  73.7379303 167.9312897   6.1275640  74.1499100 168.2552490   7.0832953
  74.8011398 167.1464081   5.3451905  74.2304535 166.7676239   4.4972882
  75.6424408 167.7993317   5.1127906  75.1602402 166.3152924   5.9521513
  73.4418106 169.0919495   5.3266311  74.2374954 169.2603607   4.8166065
  72.5960617 165.6757050   6.7898273  72.8277740 165.3396454   7.9852514
  72.6062241 164.7785645   5.8191195  72.3275757 165.1353455   4.9162612
  72.7761383 163.3110046   5.9417667  73.0519409 163.1648407   6.9861212
  71.3234940 162.7608490   5.7444143  70.6450500 163.2381744   6.4515004
  70.9838638 162.8732452   4.7147937  71.1262283 161.2598572   6.0660000
  71.7597580 160.6322479   5.4392266  71.4417725 160.8534393   7.4889841
  70.8444138 161.3300629   8.2662172  71.3274231 159.7750549   7.5991364
  72.5083008 161.0253448   7.6341119  69.6414413 160.8871460   5.8071265
  69.2942505 161.2771454   4.8503313  69.6064224 159.8056641   5.6756506
  68.9887085 161.2975922   6.5775576  73.8393326 162.7525024   4.9348569
  73.5163040 162.4628143   3.8139431  75.0640640 162.5606842   5.3722224
  75.5373306 163.0491486   6.7234421  74.8664322 162.6934509   7.5054121
  75.6025925 164.1363220   6.6799049  76.9155121 162.3875580   6.8745546
  76.8615875 161.3999939   7.3327036  77.6122665 163.0436096   7.3963194
  77.4171829 162.1393738   5.4615903  78.1085587 161.3052521   5.3417435
  77.7395401 163.1023560   5.0655560  76.1378937 161.8041229   4.7227306
  76.2081299 162.1038361   3.6771011  75.7988815 160.3293762   4.7546182
  75.3534241 159.8786163   5.8243952  76.0889893 159.5845184   3.6873636
  76.2192764 160.0156097   2.7833209  75.8552704 158.1231232   3.6519492
  75.8039398 157.7721252   4.6826158  74.4902649 157.8254547   2.9655406
  74.5321655 158.2146301   1.9482472  74.3688354 156.7475433   2.8584354
  73.2356644 158.2939453   3.7229800  73.2896042 159.3397827   4.0253024
  72.0252457 158.1928101   2.7765520  72.0791397 157.2619934   2.2119329
  71.1614075 158.3589325   3.4202044  72.0620575 159.0209198   2.0687468
  72.9188919 157.3694153   4.8939657  73.8458557 157.2285309   5.4498396
  72.1718445 157.8069916   5.5561914  72.6294403 156.3718414   4.5635633
  76.9559555 157.3549347   2.8935692  77.7053528 157.9363098   2.1195962
  77.0333405 156.0178986   3.0257359  76.4029922 155.6119232   3.7024517
  78.0100403 155.2222748   2.3390594  78.2453842 155.6320801   1.3568348
  79.3342209 155.1850739   3.1062751  79.6687469 156.2216187   3.0642512
  79.0476685 154.9019623   4.1191092  80.4916306 154.2489166   2.6890736
  80.3657074 153.2182159   3.0205719  80.5394897 154.2303925   1.6002816
  81.9009171 154.6076050   3.1585476  82.1233749 155.6384125   3.8066218
  82.8671799 153.8104858   2.7264555  83.8301239 153.9630890   2.9902024
  82.5382843 153.0737152   2.1189306  77.4134064 153.7888947   2.0872698
  77.0647964 153.0514069   2.9898863  77.0471268 153.5168610   0.7863451
  77.2752457 154.1775818   0.0572913  76.1639481 152.4320374   0.4549494
  75.8874283 151.9524078   1.3938833  74.8857193 152.9889374  -0.2598561
  75.1879730 153.1944275  -1.2867519  74.1612473 152.1778717  -0.3334115
  74.2027512 154.1958771   0.3381178  74.9070663 155.0261230   0.3905956
  73.1000595 154.7266235  -0.5686428  72.3806305 153.9158630  -0.6835064
  72.7151794 155.6504364  -0.1367600  73.5810699 154.8263397  -1.5416725
  73.7236633 153.8497620   1.7608312  74.5427094 153.4897003   2.3834219
  73.1820221 154.6738129   2.2252212  73.0502548 152.9929657   1.7376480
  76.9441299 151.4746094  -0.3888099  77.4939957 151.8399200  -1.4510175
  76.8873901 150.1548615  -0.0507212  76.2456665 149.9589996   0.7042092
  77.8455887 149.1287842  -0.5386608  78.2836990 149.4670563  -1.4776673
  79.0447617 149.0113068   0.4226621  79.7804489 148.2975922   0.0518810
  79.4985580 150.0021057   0.4449425  78.8323593 148.6569519   1.8741647
  78.1444626 149.5296936   2.7785461  77.9662476 150.5761719   2.5796938
  77.9125671 149.0666199   4.0826454  77.4258118 149.7548828   4.7577548
  78.2096252 147.7536621   4.4748821  77.9975204 147.3683319   5.4612532
  78.8120193 146.8615875   3.5160379  78.8941269 145.8003845   3.6991274
  79.0372467 147.3124237   2.2510214  79.3025360 146.6000671   1.4838396
  77.1874619 147.6990662  -0.7268040  77.7545929 146.9943390  -1.5797271
  76.0695343 147.3867645  -0.0322033  75.8263245 147.9942017   0.7371852
  75.2043762 146.2890625  -0.5280725  75.8906403 145.4436798  -0.5778491
  74.1397476 145.8222809   0.4088971  73.4759064 146.6579285   0.6304829
  73.4873962 145.0964661  -0.0766290  74.7446594 145.1894531   1.6276855
  74.7351379 143.8064880   1.9300164  75.4079971 143.6403503   3.0787120
  75.6759491 142.6970367   3.5312212  75.8686142 144.8320465   3.4362733
  76.5314636 144.9031067   4.1950097  75.4369278 145.8459625   2.5997450
  75.4112091 146.8948212   2.8559425  74.7299500 146.6303864  -1.9454834
  74.3720093 147.7915344  -2.1670518  74.5441284 145.5905151  -2.8562644
  74.8718491 144.1703949  -2.6757634  74.3548889 143.8523560  -1.7703897
  75.9379044 143.9445038  -2.6510856  74.2964478 143.4787903  -3.8988738
  73.2438583 143.2199707  -3.7840719  74.8366623 142.5856171  -4.2127442
  74.4615707 144.5151520  -5.0207686  73.6868820 144.4512787  -5.7848821
  75.4071732 144.5140076  -5.5629349  74.4160385 145.9196472  -4.3277025
  75.2255249 146.5369263  -4.7173033  73.0395050 146.5684662  -4.6209888
  72.9813919 147.5039062  -5.4687619  71.9959030 146.1061707  -3.9901023
  72.1867523 145.3300629  -3.3725767  70.6507492 146.7637024  -4.0932794
  70.4296494 146.7994232  -5.1600246  69.5203476 145.8892212  -3.4818003
  68.5921783 146.3209381  -3.8562741  69.6847534 144.9100342  -3.9315343
  69.3738937 145.7553101  -1.9441533  69.2492676 146.7404480  -1.4946207
  68.3995132 145.3510895  -1.6697654  70.3989716 144.9279327  -1.1326770
  71.4696274 144.5668335  -1.5196315  69.9867554 144.5303650   0.0385938
  70.7126617 144.0565643   0.5569380  69.1119308 144.7798462   0.4773893
  70.6785736 148.1937561  -3.6382897  69.8714447 148.9962006  -4.1761847
  71.4289093 148.6478271  -2.6684828  71.9768829 147.9880066  -2.1351299
  71.4088821 150.1124268  -2.2635479  70.3908539 150.4926910  -2.3478742
  71.9349518 150.2911530  -0.8593960  72.9909363 150.0211792  -0.8491573
  71.7612762 151.3222961  -0.5516931  71.1915665 149.4753876   0.1913049
  70.1221466 149.6627045   0.0945576  71.4455338 148.4428711  -0.0485369
  71.7764969 149.8484650   1.5585606  72.9970245 149.7019196   1.8409617
  70.9481583 150.3163605   2.4280393  72.2318802 151.0067596  -3.1898787
  71.7908478 152.1036224  -3.4141994  73.3689728 150.4954529  -3.6762249
  73.6164551 149.5745239  -3.3434489  74.0075073 151.0127258  -4.8987141
  74.3977890 152.0001678  -4.6522627  75.1600800 150.0763550  -5.2563848
  74.8608704 149.0404816  -5.4161673  75.8911972 150.5737152  -6.5018053
  76.2484055 151.5884247  -6.3261423  76.6600876 149.8187714  -6.6660028
  75.2208862 150.4574127  -7.3534269  76.2534637 149.9337769  -4.1683326
  75.9456406 149.5368347  -3.2009671  77.0336609 149.2570648  -4.5168443
  76.6414108 150.9418793  -4.0223389  73.0065765 151.1084900  -6.0354686
  72.8225784 152.2227325  -6.5429645  72.2845230 150.0471802  -6.4645934
  72.5826645 149.1385040  -6.1397243  71.3751221 150.0873871  -7.6470175
  71.9609909 150.3940582  -8.5135183  70.8564682 148.6822510  -7.9152880
  71.6915588 148.0054474  -8.0960178  70.2970200 148.2779236  -7.0716929
  70.1670074 148.7741547  -9.1198177  69.4017181 148.1985779  -9.0516520
  70.2677841 151.1698456  -7.5600333  70.0662155 151.9949646  -8.4164209
  69.5457916 151.0754089  -6.4291606  69.8052673 150.4034424  -5.7211781
  68.4677353 152.0096283  -6.1635094  67.6516800 151.8792725  -6.8742571
  67.7830887 151.6862793  -4.8258119  67.4981918 150.6357727  -4.7677131
  68.5539169 151.9439850  -4.0995126  66.4880600 152.4190216  -4.5172601
  65.7793503 152.1399384  -5.2969694  66.1480408 151.9449158  -3.5965505
  66.4473953 154.2033234  -4.2398376  67.0005875 154.3454285  -2.5891633
  68.0649109 154.1107635  -2.6054928  66.9316101 155.3709412  -2.2263293
  66.4482727 153.5973663  -2.0204349  68.8815384 153.5148621  -6.2602091
  68.1332855 154.3292694  -6.9322839  69.9633102 153.9955444  -5.6338420
  70.4778214 153.3434601  -5.0592461  70.3465500 155.3768463  -5.8025064
  69.5048828 156.0528717  -5.6518884  71.3175507 155.8237000  -4.6804094
  71.6106720 156.8673401  -4.7944040  70.6862411 155.6374664  -3.2716274
  70.6944733 154.5742798  -3.0314503  71.3791656 156.2005768  -2.6464350
  69.6619797 156.0093994  -3.2972524  72.7164764 155.1635437  -4.8009577
  73.1012802 155.1146545  -5.8196011  73.4214478 155.6770630  -4.1471772
  72.7373581 154.1014404  -4.5568018  70.9372025 155.6801605  -7.1203542
  70.7952118 156.7993164  -7.5918617  71.6176682 154.7348633  -7.8077478
  71.7210999 153.8163300  -7.4006715  72.1288605 154.8466797  -9.1589251
  72.8182755 155.6871185  -9.2393417  72.8813019 153.5829773  -9.6429672
  73.6808090 153.3838501  -8.9293509  72.1299896 152.7967529  -9.5688801
  73.4024887 153.6646118 -11.0241156  72.6272507 153.8013916 -11.7780342
  73.9199829 154.6168060 -11.1408281  74.2097244 152.4558868 -11.4608116
  73.4745026 151.6522369 -11.4197454  74.5702667 152.4957886 -12.4886827
  75.4873810 152.2413788 -10.6564064  76.0392761 153.0293884 -10.3489313
  76.0613251 151.0546265 -10.3522415  75.5152206 149.8944550 -10.5346746
  74.6444550 149.8350677 -11.0429468  76.0369186 149.0945892 -10.2058201
  77.1300125 150.9775238  -9.6369286  77.5890808 151.8585968  -9.4550953
  77.5383835 150.0600891  -9.7448559  70.9856262 155.2582703 -10.1024971
  71.0369568 156.3444366 -10.6521330  69.9090652 154.5054016 -10.1504383
  69.8549194 153.7539978  -9.4777021  68.7644730 154.6508026 -11.0781918
  69.0743027 154.8486328 -12.1043339  67.9180756 153.3145294 -11.0869951
  67.5927811 152.9350586 -10.1183453  67.0197830 153.5013275 -11.6754570
  68.6594467 152.2204437 -11.8269930  68.5543365 152.1572876 -13.0399446
  69.3877563 151.3450623 -11.1290150  69.9577255 150.6856079 -11.6392488
  69.4816513 151.5153961 -10.1379175  67.8932571 155.8898926 -10.7521038
  67.2300415 156.3806152 -11.6315613  67.8875732 156.3479614  -9.5314331
  68.4351730 155.7642212  -8.9153948  67.2948456 157.6199036  -9.0378628
  66.2653580 157.7668915  -9.3644257  67.1283188 157.4567261  -7.4414902
  66.4602585 156.6142273  -7.2626152  68.0651474 157.3126984  -6.9032450
  66.5395203 158.7479553  -6.7687936  67.1927032 159.6143188  -6.8729858
  65.0984955 159.0865021  -7.1301708  64.4878159 158.1865234  -7.0579882
  64.6672974 159.8460083  -6.4779935  64.9904099 159.5802612  -8.0958986
  66.5330048 158.4984131  -5.2436452  67.4541626 158.0935059  -4.8245759
  66.3046265 159.3878632  -4.6564178  65.8804779 157.6379852  -5.0953960
  68.1351166 158.9083405  -9.4041424  67.5863953 160.0263367  -9.5480318
  69.4760590 158.8073730  -9.5312595  69.8604889 157.8801575  -9.4190311
  70.3220367 159.9912109  -9.7530642  69.9318771 160.7633667  -9.0900192
  71.7980118 159.7074585  -9.3153305  71.7830811 158.7348633  -8.8234634
  72.7354126 159.4749908 -10.4750853  72.8555984 160.4233856 -10.9987373
  73.7244186 159.2401123 -10.0816355  72.4067535 158.6570129 -11.1161604
  72.3330688 160.7466431  -8.3565502  73.4215317 160.6913605  -8.3396902
  72.1192093 161.7539673  -8.7138596  71.7428055 160.6934357  -6.9331756
  72.1835480 159.8379364  -6.4213667  71.9813766 161.6282196  -6.4258604
  70.6578369 160.5935211  -6.9639502  70.1770401 160.5410461 -11.1732569
  70.5376968 161.7068787 -11.4715996  69.5395813 159.7528534 -12.0151224
  69.2620392 158.8324890 -11.7052631  69.0655518 160.1467285 -13.3725586
  69.7772903 160.8213654 -13.8483820  69.0526047 158.9711914 -14.3394175
  68.8172455 158.0850372 -13.7499771  68.2640381 159.0996246 -15.0808830
  70.3728180 158.7154083 -15.1398315  70.2665482 157.7737732 -15.6784534
  70.4101791 159.4993439 -15.8962412  71.6011124 158.6862640 -14.3178034
  72.4349670 159.5472260 -14.2513542  71.8439102 157.6057892 -13.5967188
  72.6753998 157.6497192 -13.0250521  71.2770538 156.7705231 -13.6297998
  67.6768799 160.9157715 -13.3254585  67.1934967 161.5064240 -14.2939939
  66.9268036 160.9093018 -12.1507835  67.3963470 160.5636749 -11.3260517
  65.5871582 161.5174866 -11.9982767  65.5297546 162.2914886 -12.7636156
  64.5272369 160.4269104 -12.3316793  63.5330505 160.8269806 -12.1325941
  64.5633545 160.2492065 -13.4064903  64.7346191 159.0227966 -11.6912136
  65.6689911 158.5841522 -12.0414257  64.9118271 159.2850494 -10.6481819
  63.4802094 158.1017914 -11.8709822  63.3742790 157.3613739 -11.0781069
  62.6245117 158.7733459 -11.8009310  63.4492378 157.3810730 -13.1780148
  63.0263939 157.9003296 -14.0380592  64.4355621 157.0210419 -13.4706841
  62.5934181 156.1287537 -13.0833282  61.6830788 156.4172516 -12.7544670
  62.5138931 155.6731873 -13.9812365  62.8647575 155.4906311 -12.3489723
  65.3470764 162.3726044 -10.7014723  65.9718781 163.4089813 -10.5435896
  64.4163895 162.0090942  -9.8685837  63.9717216 161.1051483  -9.9409800
  64.0223923 162.9204254  -8.7006207  63.9096565 163.9362640  -9.0793943
  62.6803017 162.3864441  -8.0805254  62.2737694 161.5827026  -8.6943913
  62.8989639 162.0978851  -7.0524120  61.4741516 163.3888702  -8.1520004
  61.6169510 164.4385071  -8.8546152  60.4758835 163.1998901  -7.4275899
  64.9231873 163.1191406  -7.4877582  64.7562637 164.0941772  -6.7601876
  65.9210205 162.2751617  -7.2707839  66.0872040 161.5664520  -7.9709473
  66.9638824 162.3562469  -6.2060685  67.5365448 161.4288177  -6.2010612
  67.9352264 163.5037537  -6.4415913  67.3977814 164.4402008  -6.5909829
  68.6188202 163.6855316  -5.6122875  68.7127457 163.2380829  -7.7192998
  69.2752228 162.3187866  -7.5561152  68.0756378 163.0262756  -8.5779848
  69.6411514 164.3157349  -8.1719265  70.3371811 164.5063782  -7.3550467
  70.3404236 163.9334564  -8.9155560  68.9133224 165.5263519  -8.6435518
  68.5031662 165.4548035  -9.5637436  68.6812134 166.5895691  -7.9119134
  69.0177383 166.7832336  -6.6731567  69.6336823 166.1422424  -6.1937551
  68.7414169 167.6275787  -6.1927032  68.0264664 167.5839844  -8.4218950
  67.7242966 167.5687256  -9.3855162  67.8701935 168.4707184  -7.9643073
  66.4040604 162.4573669  -4.7265425  67.1817627 162.4195557  -3.7224598
  65.1454010 162.2713013  -4.5136027  64.5476913 162.3858185  -5.3196602
  64.4848099 162.0486908  -3.1579552  65.1859131 162.4023285  -2.4019787
  63.2090492 162.8131561  -2.7796292  62.8584404 162.4600677  -1.8098298
  63.4942970 164.3389740  -2.6660035  64.3118973 164.6735992  -3.3044846
  62.5678902 164.7677307  -3.0481470  63.7143669 164.6303253  -1.6389718
  62.1517296 162.5677032  -3.7382014  62.2157555 161.7699738  -4.2684240
  64.4303207 160.5577698  -2.8412926  63.7189827 159.7925110  -3.5085602
  65.1269226 160.1351929  -1.7815042  65.7739105 160.7352448  -1.2901355
  64.6962280 158.9425201  -1.1089919  63.9531746 158.4393768  -1.7277200
  65.9435349 158.0122223  -1.0301147  65.5455017 157.0821838  -0.6242642
  66.2764740 157.7976532  -2.0456021  67.0698242 158.5316467  -0.1410731
  68.1984711 159.1269073  -0.7613123  68.0891113 159.3369598  -1.8150276
  69.2458801 159.5711517   0.0622493  70.0808640 160.1143951  -0.3549789
  69.1833496 159.5093994   1.4960508  69.7735138 160.1503754   2.1342101
  68.1004486 158.8166504   2.1165216  68.1043930 158.5612030   3.1658781
  67.0473862 158.3582001   1.2795434  66.1954727 157.8565979   1.7143240
  63.9977112 159.3043518   0.1689814  64.3415985 160.3482208   0.7621028
  62.9791870 158.5266571   0.5780752  62.9279861 157.6121674   0.1524097
  62.3622360 158.6611328   1.8835485  62.2784615 159.7246094   2.1073980
  60.9703255 157.9613495   1.8194411  61.0414467 156.9487457   1.4223394
  60.4178009 157.9366455   2.7586999  60.3473549 158.4854889   1.0946743
  63.2653923 158.0781403   3.0411940  63.7869453 156.9885254   2.9124465
  63.2973709 158.7361603   4.2060184  62.8249779 159.6207733   4.3260460
  63.8760490 158.2782898   5.4603782  64.3412247 157.2955933   5.3828988
  64.9650574 159.2091370   6.0039520  64.6278992 160.2277527   6.1959457
  65.5078888 158.5977936   7.3746400  65.8426514 157.5605621   7.3885756
  66.3041992 159.2321472   7.7639656  64.7689743 158.7621155   8.1589203
  66.0188980 159.2521820   4.8935399  65.6547852 160.0265808   4.2183871
  66.9087906 159.7030792   5.3327284  66.1892242 158.2335968   4.5448318
  62.7010651 158.1940460   6.4667568  61.8444366 159.0889740   6.4260798
  62.6030846 157.1396942   7.2423825  63.3663139 156.4860382   7.3439388
  61.4063950 156.9228210   8.1071959  60.5936470 157.5855713   7.8100381
  60.8953590 155.4999084   7.8715148  61.8025970 154.9127960   7.7289691
  60.4494591 155.1530304   8.8036880  59.9762650 155.2206726   6.6421084
  60.4655838 155.5535889   5.7267718  59.7495689 153.7452698   6.4908514
  59.1470451 153.2682037   7.2638192  59.2718315 153.5519409   5.5303884
  60.7440376 153.3015289   6.4436278  58.6160278 155.9232330   6.6417351
  58.8200951 156.9938354   6.6581173  57.9683609 155.8265839   5.7703638
  58.0375214 155.6087799   7.5103822  61.7687798 157.1625061   9.6560106
  62.8582726 156.8087006  10.0919037  60.8817520 157.8297577  10.3367319
  60.0882339 158.2343292   9.8605528  60.7451248 157.7332611  11.7538338
  61.8005447 157.7854767  12.0211639  60.0780983 159.0185852  12.3515978
  59.0243568 158.7882843  12.5087509  60.4126778 159.1910248  13.3745451
  60.3391113 159.8566132  11.7053175  60.2621956 156.3571320  12.2671394
  59.0829582 156.1270599  12.5520716  61.1492386 155.3831177  12.3207293
  62.0955620 155.6129303  12.0528603  60.7610550 154.0813141  12.9474726
  59.8872032 153.6847839  12.4305143  61.9309921 153.0434418  12.8303041
  62.8633423 153.3861084  13.2790823  61.6208229 152.0721893  13.2157507
  62.2874947 152.7826691  11.3669147  61.4244270 151.9378967  10.6116972
  60.5601273 151.4970703  11.0861053  61.6103287 151.7242279   9.2641726
  60.9203796 151.1111908   8.7033215  62.7342682 152.2890167   8.6543083
  62.9519653 152.0467529   7.3561873  62.2646370 151.4493561   7.0523558
  63.5259933 153.2344055   9.3566771  64.3841171 153.6693878   8.8659487
  63.3733482 153.4538269  10.7374020  63.9634094 154.1671906  11.2935791
  60.3008652 154.0571747  14.4144802  61.1194725 154.1848602  15.3335505
  58.9557838 153.9741669  14.6553173  58.3369827 153.7180786  13.8992767
  58.2956047 153.8560944  15.9564419  58.7659569 154.6458740  16.5421982
  56.8241158 154.2962189  15.7195320  56.3451462 154.4891052  16.6794720
  56.7690468 155.1986084  15.1106186  56.0965309 153.2691193  15.0386620
  55.1794701 153.5522614  15.0180159  58.4340706 152.5595703  16.7293396
  58.3499374 152.6675262  17.9636517  58.8053665 151.4065552  16.1048183
  58.7387466 151.5054932  15.1018858  59.5686493 150.2844849  16.6107559
  60.1122208 150.6411133  17.4856510  58.5520706 149.2586975  17.1539345
  57.9627686 149.7717743  17.9139175  57.8664818 148.8474731  16.4130135
  59.1707458 148.0348969  17.7658672  59.9775314 147.3005219  17.2213364
  58.8099670 147.7323303  19.0036640  59.1004181 146.8344269  19.3635578
  58.0706367 148.2889557  19.4082031  60.5317307 149.7728729  15.5460453
  60.0168877 149.2089691  14.5460310  61.7910233 149.7947083  15.7360888
  62.1504288 150.2569122  16.5590611  62.7258759 149.4410553  14.6349106
  62.4551506 149.7910461  13.6387606  64.0184326 150.2454987  14.8647490
  63.8019028 151.3128510  14.8201237  64.5638199 149.9425201  16.1939659
  64.8421326 148.8906860  16.2596550  65.4588470 150.5434875  16.3547840
  63.8869286 150.2385406  16.9953957  65.1869507 149.9462738  13.8787365
  64.8686295 150.2411499  12.8788271  66.0810165 150.5169983  14.1297598
  65.3414459 148.8674011  13.8953352  62.8466377 147.9395752  14.6072874
  63.2574730 147.4635010  13.5857811  62.5249710 147.1876373  15.6778479
  62.0295715 147.5767822  16.4673119  62.6764832 145.7054291  15.5860081
  63.6201515 145.4919891  15.0839787  62.6169701 145.1364899  17.0072174
  63.2503853 145.6014557  17.7626572  61.5863037 145.3082581  17.3175716
  63.0192146 143.6730804  17.0680389  62.6690254 143.1888275  16.1564579
  64.0856628 143.6166840  17.2862263  62.3808746 143.0274963  18.2943325
  62.7038765 143.5308990  19.2055702  61.3134079 142.9591370  18.0847282
  62.9645729 141.6316986  18.4167290  63.8117905 141.5110779  18.9531784
  62.4887466 140.5024109  17.9608364  61.4140739 140.3321075  17.1919270
  60.9724388 141.1929321  16.9020157  61.0382614 139.4376373  16.9112186
  63.0393448 139.3492126  18.3382149  63.8157234 139.2675629  18.9790535
  62.7751045 138.4542694  17.9517555  61.5987473 145.1319885  14.6824188
  61.8465881 144.2292786  13.8601656  60.3990974 145.6800385  14.7972775
  60.2223511 146.2208405  15.6317797  59.2540817 145.2556305  14.0086422
  59.3456917 144.2201691  13.6806927  58.0073166 145.4666901  14.8835087
  58.2544327 146.4537048  15.2744656  57.0904884 145.5209503  14.2964945
  57.8027992 144.4825439  16.0675640  58.4350891 144.7665710  16.9087753
  56.7733345 144.5651703  16.4161034  58.1643944 143.0400543  15.7029142
  57.4163513 142.3992767  14.9946022  59.1897354 142.5326233  16.2527237
  59.0764084 146.0280609  12.6982203  58.2184944 145.6843262  11.8855038
  59.8800392 147.0793152  12.5225992  60.6097717 147.1592865  13.2162809
  59.8511848 148.0341797  11.3735714  60.4006805 148.9404602  11.6281462
  60.5005493 147.3673706  10.1174545  59.9642563 146.4656067   9.8219328
  60.4576492 148.0346832   9.2566757  61.8646774 146.7985229  10.2948294
  62.4417953 147.4055328  10.9923773  61.7843056 145.7875519  10.6942902
  62.7168808 146.7562408   9.0327330  63.5104446 146.0228271   9.1758127
  62.0949059 146.3242645   8.2487392  63.2734222 148.1468506   8.7407055
  62.7862282 148.9271851   9.1576319  64.4734344 148.3108215   8.2169209
  65.1639481 147.3856812   7.6569853  64.6333160 146.5413971   7.4967079
  65.9078598 147.6210938   7.0156798  65.1036987 149.4738159   8.3033657
  64.6566544 150.3063049   8.6600657  65.9393311 149.6440277   7.7622113
  58.4287453 148.5908356  11.2264214  57.8310547 148.6085815  10.1376591
  57.8609581 149.0489655  12.3291321  58.4519234 148.9305725  13.1395912
  56.7743340 150.0565491  12.4365597  56.0276604 149.8571625  11.6679106
  56.1020393 149.7880707  13.8313665  56.7869263 149.9324951  14.6669321
  55.2879906 150.5046997  13.9402924  55.5488014 148.3646851  13.9871521
  55.1505318 148.0794220  13.0134449  56.3972855 147.7228394  14.2242622
  54.5127182 148.1361694  15.0815134  54.5753136 148.7747345  16.1554089
  53.6369781 147.2303772  14.9809799  57.2873878 151.5030975  12.3372517
  58.2938690 151.8686981  12.9948940  56.5872993 152.2878113  11.5015860
  55.9052773 151.8373413  10.9082756  56.7818947 153.7841492  11.2949524
  56.9950027 154.2162476  12.2726955  57.9121780 153.9803619  10.2238398
  57.6004448 153.6449127   9.2347021  58.0630417 155.0535431  10.1071806
  58.8123474 153.5379639  10.6505547  55.4924355 154.3930206  10.7004900
  55.0014839 153.9329071   9.6471949  55.0272865 155.5167084  11.2635164
  55.5407677 155.8304138  12.0747070  53.9508514 156.1704407  10.6707535
  53.4049377 155.5970154   9.9215832  52.9525948 156.5389862  11.8107080
  53.5598640 157.1713715  12.4583416  52.0727196 157.0224609  11.3862352
  52.4740524 155.3002167  12.5363827  51.7603264 154.2922363  11.9881868
  51.4800491 153.3975677  12.9517546  50.9761772 152.4492950  12.8365211
  51.9250984 153.9207458  14.1251831  52.0321846 153.4298706  15.0013542
  52.5667114 155.1139679  13.8837404  53.0088196 155.8123474  14.5788670
  54.4184189 157.4813385   9.9557304  53.5929604 158.0930939   9.2781973
  55.6730003 157.9741516  10.0860405  56.3345413 157.5139465  10.6948776
  56.1483994 159.2695312   9.4969196  55.5526848 159.4186859   8.5963755
  55.9199829 160.3516235  10.5179310  56.5462532 160.1102753  11.3767872
  56.1975365 161.3241577  10.1114531  54.4793320 160.5242767  11.0180902
  53.6611977 161.4546661  10.3746033  54.0020523 161.9431000   9.4736872
  52.3872566 161.7527924  10.8475256  51.8328896 162.5159302  10.3215227
  51.8906059 161.1668854  12.0034676  50.8555260 161.2730408  12.2928572
  52.7131119 160.2706299  12.6754103  52.3763161 159.7975769  13.5860081
  53.9888306 159.9759827  12.1879597  54.6056328 159.2967987  12.7577438
  57.6162682 159.3196564   9.0017557  58.3904305 158.4115295   9.1547308
  57.9863319 160.5156555   8.4850931  57.2664871 161.2207794   8.4164267
  59.3347206 160.6972351   8.0004740  60.0448647 160.6069031   8.8224459
  59.4911919 159.9473724   7.2250252  59.6396980 162.0393677   7.3865728
  58.8897171 162.9370575   7.3943524  60.8142815 162.0354919   6.7008195
  61.3680649 161.1908417   6.7030878  61.3459167 163.1804962   5.8690667
  60.5285416 163.8718872   5.6642103  62.2666168 164.0697174   6.7307196
  62.9130592 163.3927612   7.2892246  63.0979996 165.0743713   5.9460158
  62.4402428 165.7067719   5.3497591  63.5613441 165.6772156   6.7270288
  63.8075943 164.5682373   5.2914810  61.4896545 164.8218689   7.7207332
  60.9061775 164.1871490   8.1429710  61.9671822 162.8082123   4.5365605
  62.5716286 161.7730103   4.4084015  61.7419930 163.6178131   3.4660895
  61.2040825 164.4716797   3.5070429  62.2782669 163.2898254   2.0759819
  62.2947922 162.2054443   1.9667283  61.3941193 163.8316345   0.9748489
  61.9296684 163.6737366   0.0387099  60.0330696 163.2808075   0.8552015
  59.3079376 163.8074799   1.4755874  59.7535019 163.2258759  -0.1969027
  60.0411758 162.2622375   1.2432462  61.1903076 165.2413330   1.2276050
  61.9963799 165.6596375   0.9163643  63.6991539 163.8402405   1.9621408
  63.9688034 165.0479736   1.7351549  64.6956329 162.9598389   1.8555249
  64.4156036 162.0052338   1.6811143  66.1089096 163.3219299   1.6046504
  66.4343796 164.1821899   2.1895697  67.0044708 162.1988831   2.1558661
  66.7685776 161.2595520   1.6557482  68.0461197 162.4675598   1.9801729
  66.8027267 162.0725098   3.2195539  66.3505249 163.5628357   0.0663163
  66.6668167 162.6207886  -0.6263262  66.4769058 164.8243256  -0.3693502
  66.4198608 165.6581573   0.1977227  67.0958252 165.0252075  -1.7056340
  66.7379837 164.2658234  -2.4009039  66.6872101 166.4258118  -2.2196131
  65.6049576 166.4470673  -2.3475940  66.9319916 167.1361389  -1.4299219
  67.2976685 166.8165741  -3.6097586  68.3429184 166.5153046  -3.6790581
  66.7646408 166.2339630  -4.3611283  67.2257156 168.3283386  -4.0170927
  66.4981995 169.1157684  -3.3169990  67.9956207 168.6942902  -4.9530821
  68.6328964 164.8396149  -1.6383666  69.3975143 165.4316254  -0.9165425
  69.1891708 164.0867615  -2.5542846  68.5638199 163.4720917  -3.0554969
  70.6574783 164.0049133  -2.7998950  71.1726151 163.9828949  -1.8395567
  71.0401230 162.7188873  -3.5543644  70.6064682 162.8074799  -4.5504594
  72.5868530 162.6911926  -3.7783308  73.0620499 162.8124390  -2.8048935
  72.9733658 161.8032684  -4.2786326  72.8800278 163.5731964  -4.3477297
  70.5668716 161.4086304  -2.8666654  71.2504883 161.1736450  -2.0508547
  69.5866623 161.6171417  -2.4379380  70.4788208 160.1359406  -3.7524674
  71.4310532 160.0055389  -4.2666059  70.3174133 159.2657013  -3.1162875
  69.5684814 160.3092651  -4.3263512  71.1383362 165.2230682  -3.5251691
  70.9202881 165.3717651  -4.7308788  71.9166641 166.0555420  -2.8156228
  72.0249710 165.9655457  -1.8154882  72.6037827 167.2237396  -3.4111927
  72.0548248 167.4817963  -4.3168154  72.5857773 168.4986877  -2.5401683
  72.7455368 169.3842468  -3.1552706  71.5624924 168.7840424  -2.2961173
  73.4446411 168.4083099  -1.3315004  74.7290344 168.9360504  -1.3306050
  75.1786194 169.1813965  -2.2814379  75.5913467 168.9576874  -0.1544181
  76.6160965 169.2986908  -0.1554907  75.0836716 168.5238190   1.0835850
  75.7796860 168.5209045   2.2618117  76.6162109 168.9854584   2.1842835
  73.7861404 167.9514771   1.0781313  73.3711319 167.5729675   2.0005774
  72.9810181 167.9442902  -0.0892609  71.9794693 167.5487976  -0.0063153
  74.0849533 166.9667206  -3.8692963  74.5382233 167.7051697  -4.7449636
  74.7932129 165.9343109  -3.3187323  74.3059082 165.3733063  -2.6346917
  76.1003265 165.5834351  -3.7279565  76.2377090 165.9776459  -4.7348499
  77.0963364 166.5199890  -3.0526862  76.9616165 166.4775391  -1.9718767
  78.0920792 166.1959991  -3.3553865  77.0656967 167.5767670  -3.3179379
  76.3973846 164.0794983  -3.7085750  75.8736572 163.3219757  -2.9101012
  77.2201309 163.6326447  -4.7123594  77.5596237 164.3460236  -5.3415990
  77.2673721 162.2124634  -5.0685310  77.1127090 161.6074677  -4.1751256
  76.1199265 161.9452667  -6.0651541  75.2233200 162.0532532  -5.4547887
  76.2085876 162.6625061  -6.8811264  76.0536270 160.5546875  -6.6757746
  75.1123505 159.6492615  -6.1066732  74.5399933 159.9139404  -5.2298837
  74.9012680 158.4629517  -6.8632488  74.1064224 157.8193665  -6.5162301
  75.6235809 158.1541748  -8.0516491  75.3375702 157.0619354  -8.7663803
  74.8839417 156.4071960  -8.2305393  76.6438522 158.9973297  -8.5057669
  77.2078094 158.7359009  -9.3889503  76.8598404 160.1985016  -7.8425255
  77.5385056 160.9245911  -8.2651548  78.6215057 161.7468567  -5.6520405
  79.3097458 162.5149384  -6.3039732  79.1075974 160.4818726  -5.4023137
  78.5203781 159.8724213  -4.8510919  80.3166504 159.8100281  -5.9553585
  80.4245987 160.1828461  -6.9739208  81.5315399 160.2042542  -5.0745273
  81.3963776 161.2587891  -4.8340893  81.5192413 159.6174011  -4.1560817
  82.8653412 159.9071045  -5.7653346  83.0607147 158.8503418  -5.9474802
  82.8935623 160.5572205  -6.6397700  84.0571518 160.2046661  -4.7971964
  83.8157272 161.0913849  -4.2110863  84.0429916 159.4324188  -4.0280867
  85.3715286 160.4043884  -5.3873482  85.4151382 160.9579163  -6.2310276
  86.5423126 160.1209259  -4.8624067  86.7014465 159.1736298  -3.9572351
  85.9003601 158.5843048  -3.7810199  87.6368866 158.9320374  -3.6628165
  87.6166763 160.6320953  -5.3352752  87.5819702 161.2213287  -6.1548424
  88.5198746 160.5579224  -4.8893671  80.2096710 158.2724915  -6.0426559
  79.7586212 157.6233673  -5.1190023  80.6455231 157.7127991  -7.1770906
  81.0684357 158.3543549  -7.8325605  80.7155914 156.2271729  -7.4043517
  80.2067642 155.6561432  -6.6277423  80.1857376 155.7843933  -8.7955751
  80.7238235 156.3569183  -9.5510740  80.4644241 154.7365417  -8.9071646
  78.6486435 155.8545532  -8.9736834  78.1601028 155.8282318  -7.9996552
  78.4677048 156.8617096  -9.3491602  78.1051178 154.7767944  -9.9899521
  77.5400772 153.7935333  -9.4981747  78.4041061 154.7625427 -11.2264099
  82.1642075 155.7574005  -7.3532233  83.0196457 156.4293976  -7.9432178
  82.4048462 154.5921326  -6.7840414  81.6869354 154.0439148  -6.3321962
  83.7396393 153.9580688  -6.8103938  84.2747116 154.3791962  -7.6615400
  84.5609207 154.3988647  -5.5864377  84.1156921 154.0168610  -4.6677699
  85.5179291 153.8771362  -5.5801940  84.8014679 155.9512939  -5.4262786
  85.3181152 156.3818359  -6.2840767  83.8677292 156.4865265  -5.2537537
  85.7271729 156.1965637  -4.2608943  86.8835144 155.7549744  -4.3544059
  85.2947769 156.8938751  -3.3139417  83.6588135 152.3831635  -6.9256306
  82.6524658 151.7449951  -6.6325669  84.8317032 151.8425598  -7.3621378
  85.5956192 152.4444275  -7.6346955  85.0272522 150.4018097  -7.4517503
  84.2140884 149.8805389  -6.9466424  84.7457275 150.0913696  -8.9458380
  83.7916031 150.5366211  -9.2278090  85.4649200 150.6222992  -9.5695152
  84.6756668 148.5654907  -9.1320639  85.4588547 148.0468750  -8.5791121
  83.7032242 148.2315521  -8.7701941  84.7955093 148.1461792 -10.6361189
  85.4214706 147.0889587 -10.9290752  84.2772903 148.9880981 -11.5453959
  84.2741241 148.7908936 -12.5359526  83.7471466 149.7695618 -11.1871042
  86.4241257 149.9645386  -6.8600612  87.5080338 150.1798096  -7.5086932
  86.3512039 149.2005615  -5.7635002  85.4491196 148.8361969  -5.4922113
  87.4870529 148.6624146  -5.0355673  88.2775726 148.3271637  -5.7069798
  88.1319427 149.7121735  -4.0760336  87.3436432 150.1812286  -3.4872501
  88.7831039 149.2547150  -3.3311629  89.0970688 150.7110443  -4.6871424
  89.8337097 150.1198883  -5.2312036  88.6034546 151.3915405  -5.3809452
  89.8341675 151.6116943  -3.6813962  89.2939301 152.4034424  -2.8202055
  91.1009827 151.6319275  -3.8287601  87.1347504 147.4165955  -4.2198524
  85.9840546 147.1774445  -3.9036250  88.1109619 146.5412750  -3.9301403
  89.0696716 146.7445679  -4.1743860  87.8892670 145.2152863  -3.2430885
  88.8553085 144.7121277  -3.2842152  87.5427704 145.3269196  -1.7272562
  86.5600739 145.7908325  -1.6424755  87.4604263 144.2994843  -1.3727083
  88.5068893 146.1418457  -0.8836969  89.6279755 145.5479889  -0.2850855
  89.7916870 144.5097046  -0.5332427  90.4731598 146.3189545   0.5213220
  91.2718277 145.8461609   1.0735903  90.1767960 147.7148285   0.7486687
  90.9876251 148.4619751   1.5640470  91.6439514 148.0011749   2.0917709
  89.0119705 148.2668152   0.1347779  88.7182388 149.2788239   0.3713461
  88.2305222 147.5007019  -0.7825198  87.3509369 147.9133453  -1.2541760
  86.9237213 144.3792725  -4.0243196  86.2623596 143.4665527  -3.5250404
  86.8607254 144.6397705  -5.3421559  87.5445404 145.3151398  -5.6525702
  86.1652069 143.7322388  -6.2342434  86.4867249 143.8849640  -7.2644868
  86.3580093 142.7107391  -5.9064016  84.6492538 143.9183044  -6.2783322
  83.9658051 142.8990479  -6.4098263  84.1358643 145.0907135  -5.8625245
  84.7895966 145.8234558  -5.6262479  82.6933670 145.4091339  -5.6814289
  82.1470261 144.6490479  -6.2398777  82.1365662 145.3299866  -4.2083521
  81.0658264 145.5243835  -4.2701511  82.2385178 143.9314728  -3.6041503
  83.1625290 143.4492340  -3.9231257  82.1702499 143.7886658  -2.5257044
  81.4256897 143.3443909  -4.0316420  82.8336868 146.3037567  -3.2472789
  83.7857132 145.8784485  -2.9296803  82.9568787 147.2496643  -3.7747133
  81.9692383 146.7013702  -2.0530758  81.8076477 145.9070129  -1.3243899
  82.4409180 147.5398865  -1.5407180  81.0010452 147.0779877  -2.3830142
  82.3635788 146.8461914  -6.2041984  83.2336426 147.6996155  -6.0581784
  81.1272659 147.0636292  -6.6305108  80.4601288 146.3070984  -6.6822538
  80.5768967 148.3902588  -6.8135848  81.3644028 148.9343109  -7.3350568
  79.4162369 148.3397980  -7.8103266  78.6476898 147.7368927  -7.3266611
  79.0197067 149.3511505  -7.8999505  79.8076172 147.6871033  -9.1617832
  80.6981277 148.2042236  -9.5190992  80.1399841 146.6644135  -8.9835825
  78.6796036 147.7138062 -10.1299763  77.6716309 148.3774872  -9.9250441
  78.8969879 147.2220306 -11.2306004  80.1821518 149.0968323  -5.5159564
  79.6455460 148.4286041  -4.5949121  80.3548431 150.4331970  -5.4115200
  80.8758316 150.9103394  -6.1333313  80.0680084 151.2193298  -4.1456137
  79.1153412 150.7617798  -3.8788190  81.2081985 150.9593658  -3.0894909
  81.2259521 149.8790436  -2.9456501  82.5800323 151.5300446  -3.4464695
  82.6601715 152.5122986  -3.9121408  83.2265015 151.4604492  -2.5716341
  83.0244980 150.8516693  -4.1747236  80.8682098 151.6463623  -2.0070219
  81.5365067 151.6049347  -1.3190798  79.7085114 152.6620026  -4.4351931
  80.1623611 153.2596283  -5.3782082  78.9286270 153.3072510  -3.5086808
  78.7176819 152.8447418  -2.6359324  78.5430222 154.7328644  -3.7141237
  79.3941879 155.1712189  -4.2351360  77.2994614 154.8069153  -4.6413960
  77.3414154 154.1950073  -5.5424538  76.0877686 154.2452545  -3.9573922
  75.7877884 154.8045654  -3.0712297  75.2892380 154.3277893  -4.6947074
  76.2058792 153.1726990  -3.8031404  76.9325790 156.2053070  -5.1727085
  77.7318497 156.3703766  -5.8952188  75.9456253 156.2345276  -5.6344023
  76.8752289 156.9224548  -4.3538508  78.3707199 155.5305939  -2.4449902
  77.6727753 155.1587982  -1.4776114  79.0147400 156.7018433  -2.4286749
  79.4804459 156.9967957  -3.2749681  79.0341187 157.7718811  -1.3636783
  78.6451797 157.3169861  -0.4526889  80.4505081 158.1669006  -1.1704627
  80.8904037 158.6528168  -2.0413671  80.5553436 158.8647003  -0.3396930
  81.2707520 156.9550018  -0.8020164  80.8464737 156.5589600   0.1206101
  81.2551727 156.1836243  -1.5719723  82.7370911 157.3258362  -0.4773280
  83.1865005 157.9249420  -1.2692897  82.7508469 158.0167389   0.3656169
  83.7013474 156.1750793  -0.1192154  83.6788025 155.8273621   0.9135896
  83.4095688 155.2886200  -0.6823772  85.1205521 156.4878845  -0.5142463
  85.5029449 157.3100128  -0.0693186  85.6226273 155.6608887  -0.2242391
  85.1964035 156.5305328  -1.5204910  78.1103821 158.9166412  -1.7064807
  78.2415161 159.4686584  -2.8276320  77.2123566 159.2381897  -0.7863048
  77.1391602 158.8169861   0.1287570  76.1968994 160.3056641  -1.0921687
  76.6142731 160.8963470  -1.9076475  74.8512650 159.7519073  -1.5901840
  74.4147110 160.6095581  -2.1020079  75.0380859 158.6287842  -2.5869818
  75.4811096 157.7288666  -2.1603796  74.1462631 158.3320465  -3.1389756
  75.7195053 159.0539093  -3.3238926  73.7978897 159.2551880  -0.5503213
  73.7317429 159.9643402   0.2748099  72.8433151 159.1683960  -1.0693226
  74.2448120 158.3509979  -0.1370501  75.9474335 161.2529602   0.0594615
  75.8808746 160.8590088   1.2293954  75.7629395 162.5561218  -0.2220332
  75.7402115 162.8211670  -1.1963718  75.3510666 163.5530090   0.7478421
  75.3852005 163.1154938   1.7456001  76.4059296 164.6527710   0.8328012
  76.3879700 164.9948120  -0.2019847  75.9903641 165.4694977   1.4230278
  77.7472610 164.2048950   1.4652103  77.6146088 164.1131592   2.5432136
  77.9019241 163.2141266   1.0379279  78.8949738 165.1432953   1.1140714
  79.7339020 164.8047638   1.7221162  79.1489410 165.0381165   0.0593018
  78.6774521 166.6257477   1.3090178  77.8017273 167.0079041   0.7844601
  78.5508423 166.8100586   2.3758361  79.9216843 167.4157104   0.9751431
  80.1751480 167.0924377   0.0524595  79.8668976 168.4159698   0.8463060
  80.7032852 167.3265839   1.6085919  73.9697266 164.1216278   0.3862702
  73.7920227 164.6908875  -0.6892498  72.9207382 163.8833008   1.1684954
  73.1813736 163.4886627   2.0609288  71.5766449 164.3871002   0.9879917
  71.4827576 164.9515228   0.0602468  70.6555176 163.1192932   0.9511001
  70.7672043 162.5301361   1.8613309  69.6417694 163.4824219   0.7821553
  70.9545135 162.4908600   0.1121881  71.1827316 165.3216705   2.1056666
  71.7610092 165.3653870   3.1980224  70.0792694 166.0429077   1.9356964
  69.5326004 165.9422302   1.0924178  69.5359726 166.9961853   2.9552767
  70.0052109 166.8647919   3.9302912  70.1101303 168.3484344   2.5450900
  71.1675491 168.2766571   2.2904799  69.2720184 168.8365021   1.4110829
  68.2351227 169.0132446   1.6969125  69.6689835 169.7763519   1.0274011
  69.2587051 168.1871948   0.5356831  70.0034866 169.3712158   3.7093980
  68.9236984 169.5186920   3.7292674  70.2588730 168.9082184   4.6625595
  70.8963623 170.6623993   3.5372691  70.5219955 171.3669891   2.7946329
  70.8879242 171.1482391   4.5129652  71.9369278 170.4199371   3.3215606
  68.0114441 166.8154144   2.9680042  67.4368515 166.3080597   2.0237710
  67.3490524 167.1331940   4.1202288  67.8956070 167.4652405   4.9019742
  65.8281708 166.8961639   4.1641707  65.6536179 166.0036774   3.5632491
  65.6572189 166.7464294   5.2302155  64.9266434 168.0574799   3.6992970
  65.0131149 169.1554718   4.2578964  64.1275330 167.8889771   2.6051056
  64.2769852 167.0085754   2.1332350  63.2365189 168.9272461   2.0626864
  63.6681786 169.9145050   2.2273228  63.0153503 168.6595306   0.5531639
  62.7757835 167.5993958   0.4704655  62.2265244 169.2513885   0.0888919
  64.2443924 168.8577423  -0.3248688  65.1173859 168.4377441   0.1747140
  64.1301422 168.3112183  -1.2610091  64.5895386 170.3407135  -0.6800277
  65.0349808 170.4178009  -1.6718658  63.6408272 170.8683929  -0.7779346
  65.5201035 170.9961700   0.3248669  65.0823746 171.4024811   1.1393635
  66.8106155 171.3121490   0.2168812  67.5266876 170.7283020  -0.7275578
  67.0459442 169.9826965  -1.2103142  68.5026321 170.9066620  -0.9168379
  67.3496552 172.1636353   1.0646826  66.8676529 172.6182861   1.8269589
  68.2247238 172.6162720   0.8422271  61.8761826 169.1095428   2.7460594
  61.4208374 170.1956024   3.1178653  61.2011032 167.9702759   2.9167621
  61.6045265 167.1289215   2.5301502  59.7244759 167.8955231   3.3452225
  59.4425316 168.8465424   3.7970531  58.8410225 167.6276093   2.0877805
  58.9970932 166.5828094   1.8192244  57.8504753 167.8745880   2.4697781
  58.9953728 168.5224457   0.9031231  58.4255295 169.4291687   1.1061728
  60.0428886 168.8165283   0.8373481  58.6873970 167.8096924  -0.4289051
  58.1304588 168.4655609  -1.3202949  59.0149879 166.5812225  -0.6340194
  58.7423630 166.1269226  -1.4938917  59.6448097 166.1371155   0.0188157
  59.5494347 166.8358307   4.4680257  60.1426201 165.7379150   4.3955526
  58.6488380 167.0950623   5.4715495  58.0926285 167.9374847   5.5039263
  58.1361275 165.9806213   6.2837605  58.9714928 165.3788147   6.6416531
  57.5079269 166.5938873   7.5286336  56.7286034 167.3381958   7.3650432
  57.0319939 165.7782135   8.0729456  58.4714203 167.2407684   8.5163937
  59.1823654 166.4574585   8.7792683  58.9566879 168.0698242   8.0013371
  57.7384529 167.5951385   9.8027620  57.1829758 166.8035583  10.3057137
  58.5132408 167.8325653  10.5317545  56.9563065 168.9166260   9.6764688
  57.3669586 169.6093445   9.0668859  55.7816048 169.1402435  10.2487574
  55.1658630 168.2293549  10.9239006  55.5412865 167.2970886  11.0240583
  54.2157021 168.4139709  11.2123632  55.2883949 170.3548584  10.1885872
  55.8262711 171.0704956   9.7209778  54.4034500 170.5927277  10.6133137
  57.0855408 165.1043854   5.4364710  56.4242439 165.6745300   4.5315270
  56.7955208 163.8504639   5.8107862  57.3705482 163.4133911   6.5167646
  55.5943871 163.1294098   5.3394494  54.8714828 163.8432159   4.9444904
  55.9901505 162.2723999   4.0932584  55.0743599 161.8357697   3.6947775
  56.3551903 162.9476013   3.3193271  57.0582581 161.2044678   4.3168573
  56.7224007 160.0119324   4.8841624  55.7073708 159.8275299   5.2037063
  57.6549530 158.9612579   4.9925513  57.3379784 158.0226135   5.4225273
  58.9675407 159.1878967   4.6753035  59.6546860 158.3667908   4.8167701
  59.3264999 160.3783875   4.0256391  60.3452759 160.5018158   3.6890974
  58.4049683 161.4011993   3.8750217  58.6756706 162.3231049   3.3818758
  54.8799057 162.2261353   6.4465451  55.5265541 161.7861938   7.3984094
  53.5232048 161.9502106   6.2581654  53.0859833 162.5379639   5.5628290
  52.7207184 160.8237305   6.7651978  53.0375633 160.5352173   7.7674303
  51.2122536 161.2949219   6.9224420  51.1692810 162.2038727   7.5224800
  50.8079262 161.5205841   5.9356842  50.2918663 160.3216553   7.6759148
  50.3159561 159.3727417   7.1401272  50.6946259 160.1423950   8.6727848
  48.8689461 160.8321686   7.8238692  48.5832825 161.2910461   6.8773355
  48.2557793 159.9472198   7.9941902  48.6982880 161.7464600   8.9593859
  49.1012001 161.2243958   9.8272600  49.3471756 162.6171265   8.8645630
  47.2915611 162.2005310   9.1667938  46.6763344 161.4014435   9.2220621
  47.1630440 162.8678284   9.9139957  46.9303360 162.6938477   8.3628912
  52.8637466 159.5854950   5.8844075  52.9073868 159.7098846   4.6673489
  52.8457069 158.3555756   6.4948921  52.7999954 158.4136658   7.5021834
  52.8117752 157.0056152   5.8907838  53.3210297 157.0984497   4.9315410
  53.5515709 155.9051056   6.6917167  53.1307335 155.8869934   7.6970429
  53.4738503 154.5321503   6.0606790  53.6520462 154.5706787   4.9860287
  54.1228333 153.8495941   6.6093550  52.4646149 154.1482391   6.2095408
  55.0531273 156.2327728   6.7183104  55.1899567 157.3025208   6.8764958
  55.5229492 155.6419067   7.5046039  55.4918556 155.9996490   5.7481194
  51.4257889 156.5730438   5.6362929  50.5799446 156.6223907   6.5295839
  51.1932068 156.0049591   4.4271755  51.9028244 156.0934753   3.7139401
  49.9464531 155.3445740   3.9506347  49.2374763 155.4772797   4.7678518
  49.4806099 156.0597382   2.6944869  50.1181564 155.7806702   1.8555852
  48.4909401 155.6257629   2.5519466  49.2339668 157.5998383   2.6985643
  50.1633797 158.0994263   2.9718816  48.7654037 158.2334442   1.4330529
  47.7431068 157.9351349   1.2006547  48.8368225 159.3199615   1.4828757
  49.4765549 158.0109253   0.6375266  48.1697845 157.9877625   3.7131619
  48.4499397 157.6425476   4.7083716  48.0354462 159.0688629   3.6776350
  47.2622185 157.5468750   3.3007913  50.0337410 153.8258209   3.7843280
  49.1107750 153.0772095   4.1808529  51.1346397 153.4106445   3.1563706
  51.7934990 154.0591278   2.7495930  51.4678001 151.9942017   2.9975646
  51.1644745 151.4769287   3.9077921  50.6511612 151.5075531   1.7698270
  49.5953217 151.6642761   1.9906030  50.9247322 152.1859894   0.9617454
  50.7742195 150.0368195   1.2456926  51.7879219 149.9821320   0.8488079
  50.7054710 149.3273621   2.0703313  49.7305946 149.6733704   0.1292951
  49.3894539 150.5055847  -0.7296923  49.4274025 148.4787598  -0.0418250
  52.9552383 151.7677917   2.7683697  53.5540352 152.6154938   2.1392274
  53.4660263 150.5634460   3.1955810  52.8709755 149.8801727   3.6418381
  54.8207893 150.1943207   2.7899170  55.3060379 150.9819489   2.2134824
  55.8236809 150.0474854   3.9850137  55.5694275 149.2680664   4.7033186
  57.2197037 149.7479553   3.4569025  57.6177444 150.6157990   2.9310670
  57.9088326 149.6101837   4.2901011  57.2327995 148.9316559   2.7346888
  55.9513855 151.3608704   4.7489772  56.3862724 152.0939178   4.0695653
  54.9213829 151.6109619   5.0032406  56.8000488 151.3133392   6.0612264
  57.8586159 151.2977753   5.8018279  56.5852890 152.2021942   6.6544461
  56.5892181 150.5487823   6.8089609  54.7340469 148.9433441   1.9352312
  54.1576271 147.9494629   2.4096344  55.3776054 148.8511505   0.7528002
  55.7519836 149.6929779   0.3389624  55.5306358 147.6417999  -0.0353641
  54.9636307 146.7898407   0.3398367  54.9117966 147.8737030  -1.4650284
  53.8266563 147.9075012  -1.3679123  55.2367897 148.8565979  -1.8062335
  55.2001457 146.7915192  -2.5179904  56.2500038 146.7501831  -2.8081520
  54.9616280 145.8060608  -2.1179113  54.3609047 147.0432739  -3.7807758
  53.3054390 147.0908813  -3.5127695  54.7936211 147.9669495  -4.1650352
  54.5993538 145.9057007  -4.7876806  54.9840775 145.0550690  -4.4022908
  54.4792786 145.9674072  -6.0694380  54.2421722 147.1014404  -6.5794225
  54.0502625 147.9021454  -5.9944963  54.0353050 147.1064301  -7.5679979
  54.7623215 144.8878326  -6.7843962  55.1294746 144.0662384  -6.3258247
  54.6997948 145.0259247  -7.7829561  57.0316544 147.2206116   0.0275646
  57.8752670 148.1336517   0.1047328  57.3884735 145.9498749  -0.0815371
  56.6661682 145.2721710  -0.2792555  58.7840462 145.4414825  -0.2492228
  59.4671249 146.2908173  -0.2377191  59.1419067 144.4606934   0.8500148
  58.4291344 143.6393890   0.9241702  60.5752754 143.8272705   0.5387518
  61.3059998 144.6340179   0.4811832  60.7567253 143.1804504   1.3971242
  60.4428749 143.2704773  -0.3889109  59.1928291 145.1846619   2.1145730
  58.2939758 145.3629456   2.4007120  58.8606796 144.7804565  -1.6425436
  58.0411568 143.9487305  -2.0892930  59.8571167 145.1902466  -2.4375203
  60.4949036 145.8621521  -2.0352058  60.2452011 144.5388031  -3.6856773
  59.4659538 144.0548096  -4.2744217  60.8327484 145.6071472  -4.6622572
  61.5397873 146.2526398  -4.1411738  61.4021263 145.0492401  -5.4056621
  59.6822891 146.3664246  -5.4525580  59.0820580 145.6371155  -5.9965515
  59.0929222 146.9304352  -4.7296085  60.1129036 147.4116821  -6.4199395
  60.6307487 148.4637756  -6.0684328  59.7111626 147.4103699  -7.6644006
  59.9873047 148.2527008  -8.1484604  59.1499329 146.6933899  -8.1015339
  61.2232323 143.3416901  -3.4474218  62.0548553 143.4235229  -2.5373747
  61.1768837 142.3391724  -4.3252525  60.5522652 142.4829102  -5.1058240
  61.8650360 141.0410461  -4.2993321  61.6429443 140.6259308  -3.3162460
  61.3079224 140.2041626  -5.3708482  61.4939194 140.5688019  -6.3810687
  61.8034401 139.2378845  -5.2767124  59.9755249 139.8813934  -5.0367088
  59.5916824 139.4076996  -5.7782435  63.3626595 141.2631073  -4.4772959
  64.1523666 140.4797058  -4.0033994  63.8830910 142.3207245  -5.0085402
  63.3100319 143.0176392  -5.4624209  65.3366623 142.6805420  -4.8470902
  65.9115295 141.7750549  -5.0413280  65.7591934 143.6389465  -5.9155359
  66.8485794 143.6235809  -5.9487119  65.4233932 143.2704926  -6.8848605
  65.3484573 145.0902710  -5.7865562  64.5385056 145.4344482  -4.8726645
  65.8708038 145.9727478  -6.5601091  65.7229156 143.2409821  -3.4142752
  66.9026260 143.5067291  -3.1105797  64.7874451 143.2763367  -2.4649467
  63.8474579 143.0505066  -2.7573922  64.9986572 143.5555420  -1.0385242
  64.1248398 143.1357880  -0.5401807  65.9512711 143.1814880  -0.6634141
  64.9015350 145.0687256  -0.6146150  64.8639755 145.2283630   0.5821002
  64.7762527 146.0760040  -1.5361292  64.7284470 145.7686462  -2.4970396
  64.4633865 147.4862823  -1.1753976  64.9930267 147.5701447  -0.2264268
  65.0566177 148.5444489  -2.1694746  65.0083618 149.5037689  -1.6542262
  66.5143356 148.3013916  -2.4541609  66.5916901 147.5293274  -3.2196867
  67.1084061 149.1420746  -2.8125436  66.9879456 147.8520050  -1.5813161
  64.2530594 148.7087097  -3.5783436  64.9037247 148.7388763  -4.4523101
  63.6821175 147.7808990  -3.6144290  63.2938499 149.8718872  -3.5986812
  63.8049469 150.8178101  -3.4195249  62.7734337 149.8669434  -4.5564103
  62.6068077 149.6981812  -2.7704885  62.8962517 147.7720642  -0.9514362
  62.0266380 147.1317444  -1.5871290  62.5332184 148.7118683  -0.0672757
  63.3079872 149.1849518   0.3754689  61.2000885 149.0679321   0.2794624
  60.5169296 148.2793732  -0.0360738  61.1155472 149.3211670   1.8297136
  61.8096275 150.1218414   2.0852110  60.1165085 149.6840820   2.0711870
  61.4817543 147.9752045   2.5357213  61.0781250 147.1356964   1.9696665
  62.5631943 147.8397217   2.5203762  61.0088272 147.9373627   4.0208001
  61.2924232 148.8280029   4.8449583  60.1901741 146.9041290   4.2886906
  59.8270760 146.7162781   5.2122602  59.9074287 146.2618713   3.5622790
  60.7311134 150.2881927  -0.4922294  61.5591812 151.1259613  -0.8632649
  59.4244347 150.4020691  -0.6800871  58.8786354 149.5823975  -0.4557055
  58.7902756 151.5080414  -1.3714190  59.4527016 152.3610535  -1.5185940
  58.3625793 151.0386505  -2.7928219  57.6945801 150.1777954  -2.7645597
  57.6960793 151.8294525  -3.1370909  59.5522118 150.7434845  -3.7508967
  60.4628906 150.5545654  -3.1824994  59.4324265 149.8258362  -4.3268008
  59.8487434 151.8610992  -4.7742052  59.5016022 153.0047150  -4.6518855
  60.4420586 151.4791565  -5.8739619  60.6796989 152.1948700  -6.5458198
  60.7230644 150.5091858  -5.8906713  57.5758171 151.9268799  -0.4741683
  56.9123497 151.0837250   0.1440619  57.1966286 153.2429657  -0.4876863
  57.6994171 153.9446106  -1.0120732  56.1505699 153.7146301   0.4853133
  55.5344124 152.9057465   0.8779470  56.8657188 154.3782654   1.6957316
  57.2691879 155.3117371   1.3033669  56.2261810 154.6132812   2.5465336
  57.6435661 153.7207794   2.0840042  55.1905861 154.7448120  -0.2532841
  55.6438217 155.8424530  -0.6041628  53.8568382 154.5345306  -0.1423685
  53.5114746 153.7357941   0.3703200  52.9036026 155.6185455  -0.5156421
  53.2779884 156.0907593  -1.4239091  51.5306587 155.1213074  -0.9210444
  51.2895241 154.2974396  -0.2493350  50.8156929 155.9169159  -0.7114169
  51.5144539 154.7393646  -2.4075344  51.8692436 155.5898743  -2.9896479
  52.1271629 153.8575439  -2.5948675  50.0763130 154.4821167  -2.9224455
  49.5736465 153.7601471  -2.2788618  49.5044327 155.4074097  -2.8526511
  50.0876923 154.1381073  -4.4221845  49.2250900 154.5802765  -4.9207029
  50.9649353 154.6386108  -4.8321152  49.9842834 152.6729279  -4.7942429
  49.0162086 152.4509583  -4.6107531  50.0317497 152.5199127  -5.7914586
  50.6016083 152.0577240  -4.2838211  52.7763176 156.6100159   0.6687869
  52.6873131 156.1746521   1.8494933  52.8748894 157.9038086   0.3825066
  52.9551659 158.2021484  -0.5790837  52.9906960 158.8777466   1.4775954
  52.5819550 158.3847961   2.3596566  54.4380989 159.3070831   1.6770027
  54.4136276 160.0497437   2.4744706  55.3206749 158.1809845   2.2334967
  55.3277817 157.3643341   1.5116128  56.3416672 158.5449066   2.3485506
  54.9484634 157.8031769   3.1857677  55.0612221 159.9392395   0.4158792
  54.4891052 160.8046417   0.0813916  56.0701561 160.2897491   0.6333472
  55.2959480 159.2422180  -0.3885889  52.0884247 160.0811310   1.0436796
  51.4718513 160.2010956  -0.0310957  52.0694160 161.0577240   1.9217718
  52.4776459 160.7848969   2.8043904  51.5590706 162.4384918   1.7152419
  51.4311829 162.6251984   0.6489923  50.0867538 162.4405365   2.2547619
  49.5539551 161.5928040   1.8239450  50.0984573 162.3656311   3.3421226
  49.3838997 163.7943268   1.9119450  49.9241409 164.6108093   2.3911040
  49.3821259 163.9386749   0.8315455  48.0080681 163.8633118   2.4538431
  47.1680603 162.9593811   2.2827010  47.5777321 164.8806000   3.1616681
  46.6079826 164.8148499   3.4362094  48.1596718 165.6870575   3.3379591
  52.4599304 163.4550476   2.4669847  52.6923141 163.3201752   3.6537397
  52.9680977 164.4429932   1.7281880  52.6494904 164.4973145   0.7712989
  53.8150902 165.5050507   2.2134809  54.6843414 165.1228027   2.7486258
  54.4319916 166.3573761   1.0962700  53.6134644 166.4785156   0.3867349
  54.7714539 167.8571167   1.4257985  55.6569824 167.9012299   2.0598280
  54.8975372 168.4677582   0.5317510  53.9563675 168.3993683   1.9050626
  55.6646843 165.6843567   0.4375553  56.0816193 166.2857056  -0.3703168
  56.3778801 165.6210327   1.2594057  55.5156250 164.2835236  -0.0805882
  54.8212929 164.1703033  -0.9131632  56.4615822 163.8912506  -0.4539361
  55.2825317 163.5985107   0.7345918  53.0586395 166.3860931   3.1540377
  52.0113144 166.9783630   2.7816558  53.5750885 166.5029449   4.3962755
  54.4573631 166.0565948   4.6023583  53.1393394 167.4586792   5.3842092
  52.0554581 167.5644989   5.4300752  53.5967598 166.9850159   6.7835641
  54.6751060 166.8876038   6.6579409  53.5378380 167.8603973   7.4303417
  52.9805222 165.7258606   7.3423214  53.1238785 164.8967590   6.6493959
  53.5563431 165.2379303   8.7063980  53.1799240 165.8477478   9.5277052
  53.3059273 164.1862488   8.8455391  54.6445351 165.2948914   8.6799574
  51.4201584 165.7979126   7.6400347  50.9054222 165.8456421   6.6804142
  51.0673141 164.9394073   8.2115011  51.2436943 166.7218323   8.1907883
  53.6971779 168.8696594   5.1196809  54.8380013 169.0393982   4.7648878
  52.8857613 169.9117584   5.1390162  51.4491463 169.7999725   5.4247923
  51.2710037 169.3599091   6.4059720  50.9541512 169.3195648   4.5808105
  51.0399971 171.2674866   5.5490284  51.1546936 171.7092590   6.5388660
  50.0321312 171.4644165   5.1836066  52.0353355 171.9948730   4.7196336
  51.9679985 173.0450134   5.0038524  51.8606186 171.8827515   3.6495831
  53.3644371 171.2745667   4.9962196  54.0880394 171.3619690   4.1857500
  53.7995682 171.8002472   6.3679452  53.5241699 171.1931305   7.3904305
  54.2959175 173.0440674   6.3720131  54.7141190 173.4385376   5.5415850
  54.2983017 173.9351654   7.5038967  54.3517036 173.2553101   8.3542147
  55.5585785 174.8411102   7.3718810  55.6923752 175.3113098   6.3976541
  55.5175209 175.6103058   8.1430893  56.8471260 173.9784698   7.5441895
  56.7804604 173.0977325   6.9054904  57.6909218 174.6074524   7.2604680
  56.9998665 173.5753326   9.0102844  57.6122971 174.3447113   9.7756252
  56.5697517 172.4409332   9.3857355  53.0082321 174.7866974   7.6178799
  52.5262947 175.3892059   6.6554332  52.4479065 174.8322144   8.8084812
  52.7415695 174.2720642   9.5959425  51.3605156 175.7956238   9.1400223
  50.7018509 175.8618927   8.2740660  50.3768845 175.1798553  10.1401768
  50.8783264 175.0812683  11.1029530  49.5982208 175.9282379  10.2874784
  49.7447701 173.9015503   9.6413231  49.3445740 174.0858002   8.6443300
  50.5358124 173.1533356   9.5910940  48.7293167 173.3048401  10.6444283
  48.5614281 172.2658844  10.3607216  49.0226784 173.3592377  11.6927977
  47.4743843 174.0577545  10.5298948  47.3282051 174.4889374   9.6283379
  46.4038162 173.9883881  11.3613920  46.3339920 173.3994446  12.5038948
  47.1819344 172.9880066  12.8669510  45.4739113 173.3829193  13.0331402
  45.2898331 174.6059113  11.0388174  45.3678932 175.0967407  10.1595612
  44.4347725 174.4522095  11.5539341  51.7820549 177.1998749   9.4844103
  51.8963280 177.5796509  10.6569996  51.9073677 178.0112000   8.4573507
  51.8880272 177.6215515   7.5257397  52.3738747 179.3792877   8.5904112
  53.2578049 179.3596191   9.2278872  52.9015007 179.9627075   7.2489939
  52.0831299 180.0954132   6.5413485  53.5825691 181.3374939   7.4715648
  54.3843422 181.2147369   8.1997089  53.9952698 181.6828003   6.5236487
  52.9135017 182.0309906   7.9809995  53.9650078 179.0187836   6.5824556
  53.5028191 178.0680542   6.3167620  54.2624207 179.5515747   5.6792455
  54.8457031 178.8581543   7.2042904  51.2563133 180.1882477   9.2460566
  50.2048950 180.4099274   8.6562710  51.4159851 180.5994568  10.5373240
  52.2557869 180.3274078  11.0280704  50.4873314 181.4791718  11.2042112
  49.5524483 181.4053955  10.6486464  50.2148361 181.0219269  12.6055384
  51.0250893 181.2507629  13.2977982  49.3822899 181.5961761  13.0119925
  49.8961029 179.5627747  12.8151588  50.7607079 178.9303589  12.6136312
  49.4792480 179.3360901  14.2635736  48.4733925 179.6819611  14.5017395
  49.5860748 178.2687683  14.4572697  50.1374207 179.8704681  14.9486580
  48.6953621 179.1011353  11.9880285  48.9999428 179.0257721  10.9441662
  48.4555855 178.1153412  12.3865719  47.9410019 179.8699188  12.1553316
  51.0153046 182.9479675  11.0265598  52.1050949 183.2496796  11.4903326
  50.1534462 183.8384399  10.4526978  49.0030022 183.4678040   9.6750202
  48.3432388 182.8441772  10.2782640  49.2917175 183.0686340   8.7027006
  48.2727051 184.7738800   9.4984283  47.4893837 184.8916016  10.2471924
  47.8356934 184.8604736   8.5036306  49.3861008 185.8222198   9.5590982
  48.9820747 186.7853394   9.8709822  49.8530807 185.9936981   8.5892372
  50.4294281 185.2180481  10.5033007  51.4357719 185.4564819  10.1590385
  50.2338066 185.7873230  11.9245043  49.6569519 185.0768127  12.8027401
  50.7065239 187.0345154  12.1585054  50.9210625 187.6426544  11.3811722
  50.7496262 187.7391510  13.4539452  51.5909615 187.3737946  14.0428190
  51.0260735 189.2528534  13.1519880  52.0614357 189.4752045  12.8937626
  50.4914398 189.6694489  12.2983341  50.6699066 190.0767059  14.2568808
  51.0383110 190.9577332  14.1585684  49.4638176 187.4907379  14.3283844
  48.3394318 187.6863556  13.9135447  49.6418915 187.2363739  15.6503611
  50.5591431 187.3661194  16.0527554  48.4821243 187.1761932  16.5240688
  47.9061890 186.2739105  16.3183708  48.8357162 187.0529938  18.0007133
  47.9301872 186.8623352  18.5767021  49.7453804 185.8473053  18.3765373
  50.7906227 185.9955292  18.1052361  49.7506790 185.6266632  19.4439583
  49.4230614 184.9737091  17.8099289  49.6326447 188.1820221  18.4239788
  49.5523758 188.3257446  19.3697586  47.5332832 188.4106750  16.5360889
  46.3590164 188.2136688  16.7172871  48.0905457 189.5571289  16.2460442
  49.0643044 189.5454865  15.9781647  47.4049568 190.8163605  16.2972946
  46.5354996 190.7845459  16.9539013  48.3476715 191.9925690  16.8448238
  49.1793938 192.0735626  16.1449852  47.7562065 192.9016418  16.7358894
  48.9533691 191.7950439  18.2093239  49.2606087 190.7525177  18.2920609
  49.7841797 192.4930420  18.3124504  47.8493233 192.1267090  19.6469555
  47.1117973 190.5779877  19.9963608  47.8320198 189.8286133  20.3246937
  46.3826942 190.7756653  20.7821312  46.5131950 190.2382507  19.1511707
  46.8781281 191.1843262  14.9262924  45.8445244 191.8246307  14.8943291
  47.3198433 190.6088409  13.7623167  48.0953674 189.9665680  13.8407211
  46.8257065 190.9864655  12.3775702  47.1693001 192.0125122  12.2461472
  47.5882950 190.2160797  11.2765703  47.3555946 190.7556458  10.3585176
  48.6552315 190.3457184  11.4580564  47.1909409 188.8243561  11.0900412
  46.4609985 188.7955475  10.4671841  45.2741127 191.0241241  12.2702827
  44.7404747 191.8607178  11.5461226  44.5615196 190.1494141  12.9649372
  45.0627632 189.4731903  13.5231342  43.0958290 189.9869232  12.9067583
  42.8138542 190.3123779  11.9054213  42.6728935 188.5662079  13.1497478
  43.0655670 188.3341370  14.1397219  41.6050911 188.3509979  13.1100445
  43.1102982 187.9380798  12.3736992  42.3509903 190.9510193  13.8294592
  41.2143898 191.3223419  13.6169548  42.9388924 191.3680267  14.9815178
  43.7942467 190.9136810  15.2679300  42.4361649 192.4193420  15.9148083
  41.3564606 192.3157196  15.8070898  42.8314552 192.0514679  17.3616257
  42.8358078 190.9615936  17.3767624  44.2013741 192.5441742  17.8709507
  44.1753578 193.6338501  17.8766193  44.4244537 192.1998444  18.8807907
  44.9934006 192.2413025  17.1860676  41.6463585 192.5228882  18.2188740
  40.6777649 192.1395874  17.8979225  41.6882401 192.1005554  19.2228603
  41.7863464 193.6038513  18.2139816  42.6762047 193.8615112  15.4606113
  41.8123703 194.7570953  15.6844568  43.8411179 194.1859894  14.8110828
  44.4608688 193.3987122  14.6837797  44.3403282 195.5439453  14.7897539
  43.8568077 196.1310272  15.5705433  45.8633842 195.5696564  15.1280575
  46.1138840 196.6070251  15.3498945  46.0557480 194.9393463  15.9962788
  46.8251686 195.1254272  13.9540386  46.6727524 194.0621796  13.7685890
  46.5122681 195.5210114  12.9877577  48.3221092 195.5061340  14.1961956
  48.6722679 195.8917542  15.2788153  49.1699677 195.3908081  13.2014761
  50.1169930 195.7418213  13.2066183  48.8659973 195.0016022  12.3204412
  43.9605026 196.4346771  13.6208963  44.7197342 197.3095093  13.1250553
  42.6803131 196.1946259  13.1762609  42.0715103 195.4961243  13.5782051
  42.0878067 196.9637909  12.0635920  42.9051552 197.1458282  11.3658085
  41.0012932 196.0944672  11.3741446  40.3270760 195.6117554  12.0816202
  40.3565102 196.7741089  10.8169622  41.6885986 195.1566620  10.3628626
  42.3511276 195.6878815   9.6795206  42.4256210 194.0075836  10.9692860
  41.8864098 193.5746613  11.8118639  42.4499016 193.1608734  10.2832870
  43.4557610 194.2211456  11.2544327  40.5667038 194.4284821   9.6106138
  39.7787933 195.0987091   9.2669735  40.9725380 193.9693604   8.7091646
  40.1675797 193.6334686  10.2405176  41.7288284 198.3417358  12.5119476
  40.5221367 198.6215973  12.6542320  42.7163200 199.1885834  12.7560854
  43.6110802 198.7957916  12.5006933  42.6974831 200.6291046  13.0428085
  41.8798141 201.1170349  12.5123062  42.3876915 200.8530884  14.5558500
  42.2022781 201.9084320  14.7557659  41.4555550 200.3056335  14.6955500
  43.5127754 200.1600037  15.4323301  44.0261955 199.3880310  14.8591223
  44.3135147 200.8480682  15.7033987  43.0442657 199.4930878  16.7444878
  42.8413239 198.2981262  16.8209095  42.8574753 200.2699585  17.7774830
  42.3745880 199.9361267  18.5993595  43.0628395 201.2578278  17.7323341
  44.0509109 201.2289276  12.5286474  45.0190849 200.4978943  12.4020529
  44.0913391 202.5688171  12.3672590  43.2391052 203.0900269  12.5160418
  45.2522964 203.3155670  11.7953825  45.5003700 202.9566193  10.7965260
  44.8040237 204.7478027  11.5512953  45.6891937 205.2780304  11.1999598
  43.9881172 204.7717438  10.8289204  44.2637482 205.2650909  12.8291759
  43.9321899 206.1411591  12.6189880  46.5317841 203.2580719  12.7047052
  47.6620026 203.6094513  12.2756901  46.4640999 202.7734222  13.9593048
  45.5609703 202.5739594  14.3650999  47.6739807 202.4194946  14.8227253
  48.3362808 203.2851410  14.8337116  47.2450523 202.1847687  16.3114014
  46.2840195 201.6724396  16.3565407  47.9329529 201.4755402  16.7717304
  47.2547379 203.4789429  17.1377373  48.1772003 204.0415039  16.9938469
  46.0394402 204.4584656  16.9338627  45.1537018 203.8446655  17.0976830
  46.0481415 205.2820892  17.6477604  46.0990181 204.8373260  15.9135647
  47.3164597 203.0934753  18.5677719  48.0897179 202.3627319  18.8048153
  47.4101944 203.9457550  19.2407761  46.4335556 202.5450439  18.8961277
  48.5050812 201.1707611  14.2781305  49.6368141 200.9881439  14.6909599
  48.0071144 200.3315125  13.4222603  47.1495857 200.5275879  12.9259815
  48.7791748 199.1352692  12.9553223  49.1154480 198.6761780  13.8849773
  47.8487778 198.2373657  12.1741343  48.3770905 197.3647919  11.7899656
  47.0993004 197.8993378  12.8897667  47.2622147 198.9219055  11.0681515
  46.3643188 199.2080383  11.2511988  50.0972977 199.5129395  12.1461020
  51.0130348 198.7017212  11.9778442  50.3258133 200.7894897  11.6515551
  49.6344795 201.5203094  11.7412930  51.6286812 201.1857300  11.0172243
  51.9850044 200.4442596  10.3021269  51.3727684 202.4340668  10.1274958
  52.2565994 202.6785736   9.5382977  50.5792274 202.1401062   9.4404860
  50.9131622 203.6177368  10.8948078  49.9666862 203.4581604  11.4113541
  51.7517586 203.9615631  11.5003166  50.6302261 204.7801361   9.9745464
  51.4915047 205.0329590   9.3561802  49.8564529 204.3417358   9.3443213
  50.0214119 205.8790131  10.7375965  49.2311859 205.6368713  11.3181314
  50.1889496 207.1558533  10.5434818  51.1365128 207.6373444   9.7614155
  51.4862633 207.0898132   8.9881191  51.2366791 208.6396027   9.6868486
  49.4242363 208.0134277  11.1886292  48.6647415 207.6005402  11.7109222
  49.5353279 209.0053406  11.0341892  52.9140930 201.5192413  11.9490490
  53.9455910 201.9375458  11.4348803  52.8237915 201.4007874  13.2765341
  52.0181007 200.9041443  13.6291018  53.9278717 201.5913696  14.2165670
  54.3350830 202.5757904  13.9859324  53.3046074 201.7143097  15.5792866
  52.9169312 200.7338715  15.8559656  54.1357384 201.8702087  16.2670498
  52.1978416 202.7905884  15.7714128  52.5429764 203.7989655  15.5430317
  51.3606148 202.6750183  15.0830889  51.6533089 202.9144592  17.2636166
  50.7330360 203.4985809  17.2638950  51.3186531 201.9297028  17.5897331
  52.6093674 203.5053558  18.2658863  53.1653748 204.2454834  17.8619556
  52.5286255 203.3626251  19.5726280  51.7299690 202.5090027  20.1999836
  51.0942841 201.9294586  19.6706886  51.6311417 202.4898682  21.2049561
  53.2567062 204.0911407  20.3927612  53.8414688 204.8050690  19.9823284
  53.1390076 203.9812927  21.3898525  55.0860252 200.5182648  14.1876745
  55.2166481 199.7162476  15.0923977  55.8332558 200.6256561  13.1028614
  55.7094460 201.4385223  12.5163164  56.7259369 199.5657043  12.5041075
  56.2381401 198.6031036  12.6575718  56.7040977 199.8195801  10.9880028
  55.7096519 200.1803284  10.7252541  57.3992157 200.6212463  10.7385206
  56.9786491 198.6734161  10.0423183  58.2056694 198.5184021   9.3520575
  58.0319862 197.4212036   8.5845594  58.7553329 196.9512024   7.9347377
  56.8409462 196.8733368   8.7336416  56.5787125 196.0148163   8.2707539
  56.1566505 197.6168213   9.6812706  55.1196136 197.4182281   9.9082298
  58.1335907 199.3656769  13.0692959  58.6826057 200.1435242  13.8719788
  58.8402977 198.3435211  12.5050058  58.5692520 198.0057220  11.5925760
  59.9926987 197.6371613  13.1760292  59.8464165 197.7402649  14.2512379
  59.9269257 196.1297150  12.9025164  60.4372215 195.5256958  13.6527576
  58.4485321 195.6079254  12.9425592  57.8679237 195.9699097  12.0940485
  58.4774437 194.5221558  12.8510017  57.9701805 195.8321533  13.8959751
  60.6336784 195.7314148  11.6031599  60.0190353 196.1282959  10.7951994
  61.6631241 196.0894775  11.5921602  60.5805168 194.2205658  11.4205551
  59.5563202 193.8754120  11.2791681  61.2713547 194.0449066  10.5959435
  60.9408035 193.7399445  12.3301096  61.3992157 198.2969513  12.9732113
  61.5527687 198.9423828  11.9352531  62.3859406 198.2443695  13.8566751
  63.1613998 198.8334656  13.5888577  62.9829102 197.1188812  14.6649570
  63.9343338 197.5046387  15.0311327  62.1477165 196.8732910  15.9294825
  61.2487183 196.2877655  15.7369852  62.7877350 196.1666718  16.4578362
  61.8127403 198.0748444  16.7954445  62.8483467 198.9897156  17.1227226
  63.8878975 198.8540955  16.8632126  62.5849304 200.0763397  17.9774284
  63.3619194 200.7355194  18.3354340  61.3163528 200.2958679  18.5368824
  61.1713028 200.9847260  19.3559189  60.2553558 199.4488983  18.1530113
  59.3037834 199.5624084  18.6510277  60.5024757 198.3244629  17.3282738
  59.7447586 197.6005249  17.0671749  63.5295677 195.8461304  13.8688936
  63.9108543 196.1085052  12.6964960  63.6064987 194.5780945  14.3990803
  62.5505791 193.9161987  15.1103134  61.5463676 194.2806396  14.8938742
  62.6338272 194.0515289  16.1886711  62.7206535 192.4579315  14.9149418
  62.1152687 192.2008362  14.0457392  62.2444153 191.8871155  15.7121115
  64.2248535 192.2632446  14.6538868  64.3154068 191.5314484  13.8511600
  64.8156433 191.8829041  15.4871922  64.7170486 193.6390686  14.2186356
  65.4205322 193.9149475  15.0041933  65.4826889 193.5737457  12.8381023
  64.8416443 193.2531586  11.8103361  66.8030396 193.7086487  12.7262354
  67.1113663 193.5685272  11.7747087  67.7897110 194.1685791  13.7887325
  68.6871567 194.4804840  13.2545080  68.1319656 192.9902802  14.7181664
  68.9869385 193.2400970  15.3464222  67.2858582 192.7665710  15.3679085
  68.4042664 191.7867432  14.0362501  69.3066940 191.7700500  13.7092276
  67.4252090 195.4107666  14.6103497  66.3295822 195.9523163  14.4867249
  68.4047928 195.9652100  15.3708506  69.2109070 195.3837128  15.5500965
  68.2132111 196.9253235  16.4559059  67.2613907 197.4327240  16.2987690
  67.9891129 196.0596466  17.7064152  67.7979126 195.0029297  17.5195980
  68.9473038 196.1098328  18.2235813  66.8930054 196.4772644  18.5327454
  66.7278061 195.8845062  19.2695942  69.1106491 198.1130524  16.7159576
  68.7184753 198.9600983  17.5359631  70.2295685 198.4672699  16.0275230
  70.7480621 199.2577515  16.3830605  70.8775864 197.8396301  14.8582039
  71.7813034 198.4430389  14.7728224  70.1419067 198.1950989  13.5402775
  69.1698380 197.7049408  13.4860525  69.7979813 199.2274780  13.4771080
  70.8871536 197.7888336  12.2107859  71.0235367 196.7124481  12.1063042
  70.2281570 198.2094421  11.4512434  72.2945175 198.3866272  12.0162048
  73.0155640 198.1162872  12.7876387  72.5380478 198.0011749  11.0261459
  72.2054901 199.8781281  11.8502693  71.1749115 200.1652679  11.6415768
  72.4980087 200.3801422  12.7725000  73.1148529 200.3274994  10.7171679
  72.6648178 200.1926727   9.8230810  73.4480057 201.2783356  10.7880077
  74.0113907 199.8630371  10.7414818  71.4139557 196.4014893  15.1014643
  70.9569778 195.4232178  14.4913187  72.3684311 196.2446747  16.0388756
  71.8212585 196.0609741  17.3810539  70.7822952 195.7340546  17.3388042
  71.9775391 197.0089264  17.8958702  72.6367493 194.9314117  18.0053635
  72.0642014 194.3101501  18.6940670  73.4616852 195.4105530  18.5326195
  73.2850800 194.1736298  16.7961216  74.2009201 193.6703491  17.1060333
  72.5544052 193.4634552  16.4090176  73.4616089 195.3322754  15.7978048
  73.5606155 195.0440063  14.7512836  74.8320465 196.0328369  15.9740305
  75.8762207 195.3736267  16.1842651  74.9669495 197.3960266  16.0194263
  74.2080841 197.9723053  15.6845865  76.2675095 198.0747375  16.3405209
  76.9004898 197.8104553  15.4934130  76.0244217 199.6141205  16.1959496
  75.3383560 199.7488098  15.3597231  75.6088943 200.0351257  17.1114807
  77.3589249 200.3264465  15.9317799  78.1089783 199.9410400  16.6224213
  77.5932159 200.1460419  14.8826599  77.2441559 201.8619995  16.0937347
  76.8717957 202.1403351  17.0796261  78.2556458 202.2570038  15.9990654
  76.3487473 202.5421600  14.9995604  76.4582748 201.9846954  14.0693235
  75.3038406 202.4071808  15.2789564  76.5965805 204.0207062  14.8544703
  77.5661163 204.1574402  14.6066780  75.9118118 204.4112549  14.2230635
  76.5872955 204.5030060  15.7418308  76.9224014 197.6201630  17.6403885
  78.1103210 197.4635315  17.6377850  76.1125565 197.2290497  18.6270485
  75.1561279 197.0733337  18.3422661  76.6663666 196.9089050  20.0252819
  77.5367126 197.5647125  20.0024891  75.7636719 197.4514465  21.1769028
  76.4297714 197.5137939  22.0374374  75.3971481 198.8666687  20.8399792
  74.6306686 198.9574280  20.0703201  75.1449585 199.3493195  21.7841930
  76.3083420 199.3474579  20.4840832  74.6469421 196.5223083  21.6757679
  75.1226959 195.6373749  22.0984154  74.1429825 197.1061554  22.4460030
  73.9816666 196.1768494  20.8844566  77.2057190 195.4995270  20.2036152
  77.7444229 195.1684113  21.2876606  77.2600708 194.6363525  19.1516132
  77.0001297 195.0210876  18.2546692  77.7336502 193.2698059  19.1369667
  77.7268753 192.9302216  18.1012325  79.2303238 193.2484283  19.4146614
  79.3766327 193.3987427  20.4842873  79.7435913 192.2996521  19.2581921
  80.1067657 194.1983337  18.7089176  80.9784470 195.0639038  19.3399487
  81.0708694 195.0290985  20.4154243  81.7624054 195.7517700  18.3613682
  82.4493561 196.4311981  18.6556129  81.5718689 195.1742249  17.1150379
  82.2077866 195.4716187  15.9063444  82.9836121 196.2221832  15.8721132
  81.7797852 194.8833008  14.7254419  82.3301544 195.0986938  13.8215084
  80.5767288 194.1315155  14.7949581  80.1940079 193.6135254  13.9279995
  79.9268494 193.8647003  16.0198250  78.9997406 193.3110199  16.0380783
  80.4402847 194.2847595  17.2733421  77.0331497 192.1080475  19.9326859
  77.4352646 190.9398346  19.7914066  76.0558090 192.3371735  20.8185997
  75.7130966 193.2833252  20.9048805  75.9777222 191.4901886  22.0343914
  76.9719315 191.0533600  22.1283131  75.0604172 190.2852173  21.8618832
  74.5395660 190.1162415  22.8043594  74.4459763 190.4809418  20.9831028
  75.8436890 188.9684143  21.6059895  75.0623474 188.2210541  21.4680004
  76.3648529 189.0102386  20.6495686  76.7815018 188.4520416  22.7214928
  77.7105637 189.0384674  23.1866684  76.6737595 187.2088928  23.1552773
  77.2244949 186.9197235  23.9510002  75.9224854 186.5942993  22.8760376
  75.6110916 192.2224121  23.3623047  74.5466232 192.7986603  23.4319229
  76.5586395 192.1394806  24.2559052  77.5189667 192.0065155  23.9727364
  76.4097977 192.1876068  25.7046623  75.8783264 191.2853088  26.0071564
  77.7333527 192.0798798  26.5091076  77.7177124 192.5238037  27.5044918
  77.9434128 191.0136566  26.5935059  78.9514847 192.7483978  25.8339424
  79.1166077 194.0219116  25.8925362  79.7401886 192.0634918  25.1453590
  75.5761871 193.3532715  26.1654911  75.6087723 194.3827057  25.5363159
  74.7169418 193.0877838  27.1547089  74.7962341 192.1302643  27.4661350
  73.7420731 194.0124359  27.8043442  72.9701996 193.3876953  28.2538166
  74.4666061 194.6764374  29.0390034  73.7660065 195.3289948  29.5599957
  74.7544708 193.8329010  29.6664238  75.8657990 195.3340454  28.9153252
  76.3659210 195.2830658  29.8824749  76.4988480 194.7872314  28.2165031
  75.9024658 196.8497314  28.4720421  74.9517365 197.2907715  28.7715321
  76.7228088 197.3053284  29.0266399  76.2913208 197.0919647  27.0978165
  75.5732727 197.3778076  26.4475975  77.5021744 197.1594849  26.5581074
  78.6005173 196.9144440  27.2068348  78.6053848 196.5479584  28.1479836
  79.4453125 196.7989502  26.6654682  77.5884628 197.5007172  25.2738552
  78.5247574 197.5761566  24.9027061  76.7954407 197.7835846  24.7159996
  72.9574661 195.0496979  26.9633884  72.4736862 194.7855530  25.8414021
  72.6661453 196.2041931  27.5349007  72.7772598 196.2949524  28.5346603
  71.8351059 197.2549286  27.0219975  71.7773209 198.0174713  27.7987118
  72.5063095 197.9441833  25.8611813  72.6416550 197.3080902  24.9864445
  71.9177170 198.7930908  25.5132942  73.4468307 198.4012909  26.1687012
  70.3035736 197.0532532  26.7180042  69.4534073 197.7272491  27.2792130
  69.8442993 196.2110138  25.7870388  70.4846725 195.6564484  25.2370529
  68.4805145 196.3385620  25.1329670  68.1817169 197.3832703  25.0470181
  68.5417175 195.9044800  23.7106590  67.5253754 195.6884460  23.3813152
  68.7854919 196.7648010  23.0873432  69.3390198 194.6567841  23.3368263
  68.8524933 193.4038849  23.8950348  67.9841614 193.3861084  24.5369701
  69.6709824 192.2612305  23.7196541  69.4018631 191.3571014  24.2455177
  70.8545609 192.2882233  23.0129929  71.4247055 191.3808136  22.8790340
  71.3262482 193.5500641  22.5368576  72.3087006 193.6093140  22.0922413
  70.5582657 194.7306061  22.6486359  70.9523315 195.6556549  22.2544308
  67.3510971 195.6741333  25.9275951  66.2576065 195.4307098  25.4000835
  67.5965195 195.3782196  27.2353420  68.5335617 195.5674133  27.5613079
  66.6099854 194.8679504  28.2753315  66.2493057 193.9004974  27.9259644
  67.2975159 194.6907196  29.6757908  67.5373230 195.6948395  30.0255413
  66.5108261 194.2965851  30.3191166  68.5971756 193.8033600  29.8390942
  68.3329086 193.0358276  30.5665150  68.8488464 193.3624878  28.8745289
  69.8369064 194.6084442  30.3110409  70.6953278 193.9367523  30.3045521
  69.9232712 195.5117340  29.7071285  69.6974030 195.0821075  31.7060452
  69.6631927 194.3807220  32.4319801  69.9508209 196.2268677  32.2053223
  69.9982529 197.3023529  31.4555912  69.7314453 197.2145691  30.4854336
  70.1464310 198.1908112  31.9125385  70.1676254 196.3561096  33.4893036
  70.1993637 195.6545715  34.2152023  70.2239761 197.2761841  33.9020996
  65.3049164 195.7336731  28.3733273  64.2211227 195.1220245  28.4613304
  65.4043961 197.0796661  28.3271160  66.3414459 197.4345245  28.2001667
  64.2586517 198.0216064  28.3055172  63.6659317 197.8476410  29.2035809
  64.8478622 199.4172058  28.4507771  65.4922180 199.6464691  27.6020470
  63.9763489 200.0713806  28.4758205  65.6463242 199.6094818  29.7653332
  65.0829773 199.0820007  30.5350819  66.6098175 199.1018677  29.7193699
  65.8552475 201.1208038  30.1211052  66.2738647 201.9756622  29.2986832
  65.6893845 201.4836273  31.3951797  66.0625305 202.3674622  31.7109108
  65.5640793 200.7333221  32.0596008  63.5304451 197.9114380  26.9433918
  62.2871284 197.8747406  26.9421577  64.2341080 197.7838440  25.7746906
  65.2197571 198.0014954  25.8096218  63.7141228 197.5008392  24.4551735
  62.9560432 198.2366486  24.1868267  64.7502060 197.6121674  23.4195766
  65.0878525 198.6416016  23.5394039  65.5871506 196.9581757  23.6643829
  64.1613617 197.3659058  22.0648937  63.3422546 198.1485291  21.3216839
  63.0676842 199.1358490  21.6625729  62.8451271 197.4331360  20.2878551
  62.3117638 197.8782959  19.5547352  63.4481506 196.1777802  20.1911278
  63.3025894 195.1371613  19.2641449  62.6028748 195.1842041  18.4428120
  64.1460495 194.0478058  19.3694496  64.1339417 193.3372650  18.5561886
  65.0235901 193.9928284  20.4734535  65.5939941 193.0781708  20.5401344
  65.0722885 194.9322357  21.4992714  65.7782898 194.7518005  22.2963963
  64.2765350 196.1183929  21.3461456  62.9192619 196.1819305  24.3539028
  61.7942581 196.1504211  23.8571911  63.4152069 195.0576935  24.9337635
  64.3735580 195.0045624  25.2481575  62.5992851 193.7890167  24.9437504
  62.2445488 193.6752625  23.9193821  63.5252304 192.5881805  25.3408947
  64.3060532 192.9792938  25.9931641  62.9060822 191.8424683  25.8395653
  64.1063995 191.9361572  24.1648006  65.4064102 191.8456268  23.8833961
  66.2141342 192.1817169  24.5166702  65.6598434 191.1204376  22.7124176
  66.5653839 190.9524689  22.2978344  64.4454498 190.7582550  22.1596508
  64.0898743 189.9362030  21.0812645  64.7841339 189.5751801  20.3369083
  62.7005692 189.6403351  20.9090252  62.3655968 189.0071411  20.1007805
  61.7834129 190.0623779  21.8660431  60.7347412 189.8186493  21.7806454
  62.1219482 190.8940735  22.9340210  61.4068947 191.1526337  23.7009945
  63.4395638 191.2475281  23.1059856  61.3531837 193.8448944  25.8104858
  60.4741592 193.0307770  25.5611210  61.1404877 194.8169098  26.7054996
  61.8477020 195.5256195  26.8384609  59.7793121 195.2064514  27.1974735
  59.2483635 194.2752991  27.3953209  59.8960495 196.0226440  28.5160427
  60.4911346 196.9026947  28.2721882  58.8968163 196.3346558  28.8198185
  60.5448570 195.2000732  29.6431103  60.0459442 194.2325439  29.6984291
  61.5504684 194.9346313  29.3169556  60.6013107 195.9352875  30.9969501
  60.8561516 197.1362457  31.0687885  60.3155518 195.2792358  32.1345863
  60.5703392 195.7418518  32.9954910  60.2099571 194.2748413  32.1465607
  59.0562668 196.1227570  26.2402515  57.9440041 195.8511200  25.8655319
  59.6960716 197.1226807  25.6914616  60.5923576 197.2785339  26.1301880
  59.2157440 198.1798096  24.7552738  58.4659920 198.7801361  25.2706089
  60.3333244 199.0720520  24.3822861  61.0470085 199.1338959  25.2038288
  60.9089165 198.6884003  23.5399075  59.8131638 200.4885559  24.1127739
  59.0795441 200.3340912  23.3215446  59.3063507 200.8793182  24.9951286
  60.9417915 201.4086304  23.5626526  61.8189240 201.5040588  24.2026768
  61.3523140 200.9363556  22.6701756  60.3118896 202.8327484  23.2438526
  60.8921661 203.3642731  22.4896240  59.3561516 202.7463379  22.7269440
  60.2229424 203.7177582  24.4246006  61.1521950 203.8882904  24.7816772
  59.9567184 204.6595764  24.1752110  59.7727051 203.2637634  25.2064495
  58.6329880 197.5490875  23.4689465  57.4633217 197.8018951  23.2130642
  59.3395195 196.6722565  22.7475891  60.2773705 196.5131989  23.0870476
  58.8060226 195.9825134  21.5587711  58.5038528 196.8070374  20.9130630
  60.0192566 195.2092438  20.9922943  60.6625977 195.9391632  20.5009346
  60.5274773 194.7272339  21.8274460  59.7073021 194.1406403  19.9983349
  59.3958015 194.5648041  18.6767578  59.4658813 195.6258240  18.4877625
  58.9648132 193.6652832  17.6741600  58.8955765 193.9743500  16.6416435
  58.8629189 192.2780609  17.9674206  58.4137383 191.3886566  17.0251408
  57.9319038 191.7479095  16.2765522  59.0988083 191.8545837  19.3139019
  58.8399620 190.8373566  19.5682125  59.5068092 192.7842102  20.2943611
  59.5349503 192.5085907  21.3382206  57.5360413 195.1526947  21.9082928
  56.5627708 195.2099609  21.1158161  57.5705185 194.4430237  23.0361233
  58.3053131 194.5941772  23.7123852  56.3601570 193.7476044  23.4864941
  56.0499039 193.0831146  22.6800938  56.7188835 192.8183136  24.7127571
  57.1599922 191.9002533  24.3245583  57.4561768 193.3347015  25.3274345
  55.5373306 192.4547577  25.6569729  54.9898300 193.3410034  25.9777985
  54.9057999 191.7205505  25.1567669  56.0770798 191.9587402  26.9692364
  57.1238365 191.3498993  27.0771446  55.2835464 192.0573578  28.0198784
  55.6117363 191.6571655  28.8871975  54.3585014 192.4614716  27.9871140
  55.2581024 194.7845917  23.7410316  54.1417198 194.6492767  23.1928463
  55.4457130 195.8736267  24.5216122  56.3072739 195.8690186  25.0486736
  54.4074287 196.9102631  24.7692547  53.6230164 196.3393097  25.2660465
  55.0591621 197.9504852  25.6779022  55.2447548 197.3906555  26.5945511
  56.0163689 198.3010101  25.2918987  54.1187401 199.1576996  26.0005093
  54.0659180 199.7267914  25.0723667  53.0998039 198.8684998  26.2578640
  54.6591454 200.0764465  27.1103878  54.7221985 199.4439240  27.9958420
  55.6022644 200.5827026  26.9046211  53.5076294 201.1119690  27.3707619
  53.4817924 201.7901764  26.5178471  52.5050888 200.7113647  27.5208645
  53.8141441 201.8606567  28.5970173  54.6656265 202.3814545  28.4425831
  53.0181541 202.4244537  28.8589993  54.0412331 201.2547913  29.3725548
  53.8620300 197.5050507  23.4936962  52.6111603 197.6594696  23.4119377
  54.7253990 197.7982330  22.4937935  55.7219543 197.8192749  22.6567078
  54.3333473 198.3853149  21.2140045  53.6010704 199.1545563  21.4592228
  55.5627708 199.1342468  20.5879421  55.8446579 199.8296967  21.3785076
  56.3242722 198.3805847  20.3874073  55.2143669 199.9096527  19.3452053
  54.8407326 199.2433014  18.5677242  54.3540039 200.5364380  19.5798206
  56.2748909 200.7801208  18.7401562  57.1924133 200.1916809  18.7414665
  55.9618034 201.0906525  17.7433395  56.3554192 202.0592651  19.5050964
  55.6701660 202.3189697  20.2001438  57.4125633 202.8997498  19.3778973
  58.3729897 202.7371979  18.5093727  58.2028427 202.1611481  17.6973877
  58.8675232 203.5819244  18.2604523  57.5968285 203.9328156  20.1451797
  56.8585052 204.1632996  20.7946796  58.4646912 204.4494324  20.1407909
  53.6565285 197.4151306  20.2662487  52.5350037 197.7094269  19.7619858
  54.1685066 196.1648102  20.0694561  55.0425148 195.9400177  20.5229740
  53.5354538 195.1509705  19.2237396  53.3378944 195.5582886  18.2321930
  54.5583687 193.9942474  19.0105267  55.4940796 194.4731903  18.7221470
  54.7513695 193.4122467  19.9117126  54.1364822 193.1180115  17.8249550
  53.2658386 192.5489044  18.1508369  53.9461060 193.7420349  16.9517746
  55.2620697 192.0917206  17.5022812  56.1197662 192.6506348  17.1280174
  55.5799026 191.5099640  18.3675289  54.7698708 191.1097412  16.4352760
  55.3871155 190.2204285  16.3077965  53.7691612 190.7169495  16.6152763
  54.7537766 191.8240204  15.0872860  55.6752205 192.1587067  14.8443298
  54.3415413 191.2547913  14.3619308  54.1059494 192.5962982  15.0239859
  52.2408104 194.5922394  19.7922955  51.2729454 194.4964600  19.0711384
  52.1140251 194.3040924  21.1027603  52.8974648 194.5004730  21.7091885
  50.8792152 193.7223358  21.6977444  50.3444595 193.3355408  20.8302631
  51.2124786 192.4739380  22.5500698  51.7732925 192.6280670  23.4719296
  50.2743378 191.9599304  22.7593460  52.0196152 191.4697418  21.7500629
  51.4622955 190.7729950  20.6384964  50.4405785 190.9566193  20.3405476
  52.2994843 189.9789734  19.8322010  52.0700150 189.3826447  18.9614868
  53.6459579 189.8759918  20.1305847  54.2273445 189.2306366  19.4887867
  54.2675896 190.5772095  21.2047310  55.3177719 190.4586334  21.4271145
  53.4240074 191.3536987  22.0352764  53.7616882 191.9497986  22.8701611
  50.0020447 194.7358093  22.3711433  49.1118965 194.3702087  23.1201401
  50.1946411 196.0287933  22.1780968  50.9600754 196.3682861  21.6133308
  49.1784706 196.9973907  22.6791019  49.2677307 197.0092010  23.7653770
  49.5892334 198.3991852  22.1151180  50.4958725 198.7678223  22.5949249
  49.8092690 198.3024139  21.0519524  48.5377731 199.4768829  22.1967449
  48.4214668 200.3553467  23.3317547  47.4255142 201.1464081  23.0386372
  47.0047531 201.9106293  23.6752968  46.9061699 200.8735657  21.8082066
  46.1101837 201.3789673  21.4461670  47.5796280 199.8054810  21.2738895
  47.5040016 199.3013306  20.3217793  47.7458763 196.6103668  22.2565174
  46.8595581 196.8923187  23.0652122  47.4866524 196.1013184  21.0661716
  48.2488136 195.9355316  20.4245110  46.1646004 195.7528687  20.6359921
  45.5797234 196.6443481  20.8624554  46.0450134 195.6868286  19.1080570
  46.6013298 194.8765106  18.6368752  44.9984093 195.5311584  18.8463421
  46.5627937 197.3366699  18.5375118  45.4710579 198.0805206  18.7367210
  45.4109535 194.6111603  21.3932991  44.2073555 194.4541321  21.2998924
  46.1025734 193.9399719  22.3150501  47.0302925 194.2996826  22.4883652
  45.6152306 192.7876892  23.0894337  45.3147545 192.0117493  22.3853359
  46.8247147 192.2926025  23.8252335  47.0245094 193.0186157  24.6133213
  46.5918465 191.3617859  24.3423901  47.6022568 191.9803467  23.1280727
  44.4454498 193.1377716  24.0910378  43.6266518 192.2748718  24.4444084
  44.3774757 194.4041901  24.4041920  45.0372963 195.0695648  24.0273647
  43.3211441 195.0687408  25.2242870  43.3012848 194.4941101  26.1503124
  43.7309151 196.5885925  25.3983631  43.1178703 197.0832977  26.1517220
  44.7559662 196.6306305  25.7666073  43.7187157 197.2285004  24.0865536
  44.2122269 198.0282440  24.2826824  41.8840942 194.9102631  24.6233616
  40.9779549 195.0209961  25.4724483  41.7114830 194.6539307  23.3348026
  42.5687485 194.5054779  22.8218155  40.4955635 194.4553986  22.6347237
  39.7134399 195.0881500  23.0542507  40.6905594 194.8474274  21.1772251
  41.5244446 194.2675934  20.7815685  39.8561554 194.6064148  20.5185928
  40.8771935 196.3473816  20.8659286  41.7293625 196.7230225  21.4323273
  41.0554428 196.5194702  19.3611832  40.1936760 196.1195679  18.8268280
  41.1396141 197.5951385  19.2063656  41.9554749 195.9624176  19.1009197
  39.5884552 197.0684662  21.3193932  39.5093079 196.9724274  22.4022655
  39.7154541 198.1324005  21.1193104  38.6963272 196.6862183  20.8233204
  39.9397926 192.9932404  22.8482933  38.8773766 192.6084290  22.3816357
  40.7442665 192.1015472  23.4726868  41.6059189 192.5192566  23.7939072
  40.3642540 190.7969055  23.9313374  39.2944527 190.6101074  23.8379040
  40.9756622 189.6940155  22.9911747  40.3289032 188.8262939  23.1210690
  41.1953163 189.9494324  21.4938183  42.0389633 190.6385040  21.4546375
  41.3507957 188.9951477  20.9905758  40.3172150 190.4009857  21.0321388
  42.1773224 189.1637726  23.4746723  42.4596291 188.4961395  22.8452587
  40.7119637 190.5745697  25.4786930  41.0577087 191.5085449  26.1876564
  40.3571663 189.4086304  26.0273037  39.9302711 188.7200317  25.4242306
  40.5141220 189.0884247  27.4793205  40.0372314 189.8411865  28.1070328
  39.7484245 187.8173370  27.7438545  39.8762436 187.6218262  28.8085327
  38.6876984 188.0281982  27.6078625  40.0105019 186.7401733  26.8274345
  39.2641945 186.1368713  26.8018494  41.9655838 188.8442078  27.9319019
  42.2266960 188.8078613  29.1320744  42.9301453 188.6988678  26.9950886
  42.6516228 188.8761597  26.0405788  44.3512077 188.2308197  27.2825565
  44.3606529 187.6697845  28.2170410  44.8441544 187.4223785  26.0803318
  44.7699814 188.0740814  25.2097778  45.8889122 187.1862335  26.2823830
  44.0018959 186.1718292  25.8698559  43.4301338 185.7778931  24.6888027
  43.6266937 186.2906036  23.7588081  42.8938293 184.5532074  24.8585796
  42.2967758 184.1497040  24.1508980  42.9904175 184.0954285  26.1498299
  42.5529709 182.9402161  26.7991524  41.9128876 182.2549286  26.2633476
  43.0262070 182.6397705  28.1112118  42.6087151 181.7379913  28.5341778
  43.7985649 183.6218567  28.7887001  44.1172981 183.4475861  29.8057728
  44.1565819 184.8150635  28.1900787  44.7115440 185.4855499  28.8295002
  43.8160667 185.0573273  26.8314342  45.2791862 189.5067749  27.5436077
  45.0029526 190.5653381  27.0095711  46.3700371 189.3560181  28.3450546
  46.5877800 188.2986603  29.4031067  46.8099098 187.3193207  28.9792824
  45.6822662 188.2821350  30.0096302  47.7852325 188.7540283  30.1972847
  48.6637917 188.2297974  29.8212337  47.6741753 188.5547180  31.2631359
  47.9608459 190.2303925  29.9308109  49.0187569 190.4929352  29.9328594
  47.3126183 190.7501526  30.6363316  47.3871994 190.4101105  28.5180740
  46.8006325 191.3288269  28.5152931  48.4141083 190.4026337  27.3850613
  48.6671028 189.3347168  26.8371525  49.1296921 191.5545959  27.1644363
  48.8514099 192.8526001  27.7471733  49.2043915 192.8758240  28.7781754
  47.7777672 193.0380554  27.7155037  49.6098862 193.8336182  26.8714218
  49.8678131 194.6950989  27.4874077  49.0318947 194.1196594  25.9926643
  50.8024216 193.0474548  26.3938160  51.5127487 193.0351410  27.2204857
  51.2264328 193.5504303  25.5247116  50.2152596 191.6471558  26.1708736
  49.8228912 191.5128937  25.1628437  51.3095627 190.5496521  26.2929478
  51.8237953 190.0427246  25.3053036  51.6127739 190.0747833  27.4919052
  51.2261505 190.6177368  28.2507286  52.6598206 189.0341797  27.7383137
  53.5285378 189.2812653  27.1280899  53.1186943 189.0196686  29.2202358
  54.0024986 188.3855591  29.2902260  53.5857582 189.9969940  29.3417854
  52.1862907 188.6148529  30.2931118  51.4859962 189.4722900  31.1368999
  51.4414825 190.5512390  31.1198559  50.7468376 188.7423859  31.9809723
  50.1358719 189.1538696  32.6719818  50.8452530 187.3480988  31.7124043
  50.2590942 186.2351685  32.2877960  49.5227623 186.3212280  33.0731621
  50.5173340 184.9637146  31.7813225  49.9452858 184.1131592  32.1215096
  51.5778847 184.7925110  30.8543968  51.9106560 183.8450470  30.4569416
  52.1632729 185.9547424  30.2866497  52.8880615 185.8040619  29.5002823
  51.7657700 187.2544861  30.6632881  52.3153343 187.5822754  27.3075390
  53.2010689 186.7747498  27.0998459  51.0162964 187.1990967  27.1309319
  50.2448311 187.8469849  27.2029438  50.6892128 185.8230286  26.6792641
  51.2611961 185.1721954  27.3405857  49.1221237 185.5916901  26.7755909
  48.7265930 185.7660675  27.7762146  48.6834297 186.2793427  26.0525436
  48.7318993 184.1056976  26.4607201  49.0872917 183.8936462  25.4523430
  49.3293037 183.0666809  27.4045429  49.0008469 183.0585785  28.4438438
  49.0730972 182.0393829  27.1455040  50.4167442 183.1377106  27.3814259
  47.2225685 183.8659821  26.3978596  46.6498756 184.6480255  25.8993263
  46.9540215 183.0248871  25.7586899  46.6715012 183.7375336  27.3294849
  51.1949615 185.6352234  25.2487297  51.6976738 184.6114044  24.8593235
  50.8921890 186.6407013  24.4087124  50.5119324 187.5238037  24.7179909
  51.2893562 186.5535431  23.0257893  50.8741646 185.6550446  22.5692711
  50.6757355 187.7252502  22.3222446  51.0391617 188.6653900  22.7371635
  51.0887299 187.6388245  21.3172226  49.1667557 187.6923218  22.3268909
  48.3736916 186.5082855  21.9216080  48.9693413 185.6582336  21.6232738
  46.9660034 186.4515991  21.9315109  46.4648666 185.5734100  21.5519829
  46.2724152 187.5899200  22.2914333  44.9371033 187.6609497  22.1925430
  44.5635757 186.8673859  21.8022404  46.9862213 188.7309875  22.7135639
  46.4803200 189.6239471  23.0498390  48.4010849 188.8057709  22.7864151
  48.8156624 189.7091675  23.2087669  52.7877388 186.4673615  22.8052788
  53.1907005 185.8428192  21.8534737  53.6691589 186.9231415  23.7757244
  53.2293816 187.6111298  24.3701706  55.1449318 186.7189636  23.8045177
  55.5272217 187.2626648  22.9406052  55.7644501 187.4338531  25.0243130
  55.5027847 186.8456726  25.9039001  56.8471909 187.3794861  24.9111176
  55.2658844 188.7933960  25.0805187  55.8143883 189.3229065  25.6639175
  55.4705925 185.2398529  23.6999035  56.3119125 184.9198151  22.8986187
  54.6273537 184.4224243  24.3759995  53.8213310 184.9233093  24.7217388
  54.6336823 182.9386444  24.5436649  55.7029648 182.7434082  24.6249886
  53.9012604 182.4328766  25.8560963  52.8234634 182.5349731  25.7294884
  54.0376701 181.3520203  25.8913422  54.3470726 183.1873779  27.1554222
  53.9738121 184.2081909  27.0734138  53.7219620 182.6472626  28.4072361
  54.1154175 181.6427002  28.5625610  53.9893150 183.3374023  29.2074528
  52.6482658 182.6517792  28.2194557  55.8326073 183.1564941  27.4251614
  56.3433495 183.7412415  26.6601009  56.0904198 183.6594696  28.3571720
  56.2080612 182.1388702  27.3174763  54.1815147 182.1816864  23.3313675
  54.3440285 181.0085449  23.3192997  53.6809425 182.8991394  22.2655849
  53.5987854 183.8837738  22.4749737  53.3887024 182.4002228  20.9211788
  53.7907333 181.3872070  20.9369888  51.8235550 182.2646027  20.8026524
  51.4113388 183.1470490  21.2920094  51.4355659 182.2675476  19.7840481
  51.1813889 181.0969238  21.4553204  50.6367264 181.2966461  22.7316723
  50.7305260 182.2717590  23.1863670  49.9215012 180.2952118  23.3846302
  49.4626160 180.5346375  24.3325214  49.7629433 179.0307007  22.7819538
  49.0376701 178.0447540  23.4228210  48.9444695 178.1965637  24.3661499
  50.3181915 178.8088379  21.4866600  50.0943031 177.9643097  20.8518009
  51.0450439 179.8481445  20.8541660  51.2917404 179.7627563  19.8061924
  54.0447121 183.2044373  19.7418957  54.0308342 182.6733398  18.6649113
  54.5341911 184.4434814  19.9033794  54.4768028 184.9058075  20.7995129
  55.1774483 185.1983185  18.8441582  54.5131378 185.2167206  17.9801788
  55.3062401 186.6103668  19.4460106  54.3203926 187.0603790  19.5630684
  55.8068962 186.4781647  20.4051571  56.2080727 187.4798584  18.5502548
  56.1116791 187.3949280  17.3056164  56.9668159 188.3239441  19.1512203
  56.5661964 184.5908203  18.3992119  57.4409294 184.2856598  19.1692619
  56.6437035 184.2858734  17.0882626  55.8965492 184.6743164  16.5306053
  57.8406754 183.6263733  16.4593315  57.9375038 182.6293030  16.8889694
  57.6465034 183.5249634  14.8925905  57.9411240 184.4468994  14.3912430
  58.4321442 182.8558502  14.5416431  56.6898651 183.0830688  14.6139040
  59.1275063 184.3917542  16.7290058  60.1885376 183.7574921  16.9042473
  59.1081924 185.7520447  16.8307438  58.1881104 186.1632690  16.8973713
  60.4165916 186.4960632  17.0041084  61.2159233 186.0891113  16.3847847
  60.2258949 187.9627686  16.5891132  59.4624290 188.3859558  17.2418995
  61.1468620 188.5115662  16.7859440  59.7336617 188.1648865  15.1343985
  58.7980156 187.6338959  14.9591150  59.6120834 189.2468719  15.0830736
  60.8585739 187.6962128  14.1473036  62.0821228 187.7130890  14.3141060
  60.4219856 187.2687836  13.0588913  60.8799248 186.4101257  18.4493618
  62.0670166 186.1540070  18.7721577  59.9346046 186.4599915  19.4377251
  58.9875336 186.6961365  19.1781330  60.3101425 186.3605652  20.8027153
  61.2616806 186.8652649  20.9699287  59.1780243 186.7942200  21.6273384
  58.2706680 186.2343903  21.4006424  59.4241333 186.7071686  23.1594677
  60.2643738 187.3754730  23.3477821  58.5987473 187.2048340  23.6685467
  59.4790955 185.6784058  23.5154800  58.8022957 188.1697388  21.4217358
  58.0208588 188.1687164  20.8641033  60.7241020 184.8766632  21.0707569
  61.7208328 184.6115570  21.6733742  59.9466934 183.9294281  20.5356674
  59.1680336 184.2037048  19.9538097  60.2978668 182.4914246  20.5924683
  60.4161110 182.1192474  21.6101151  59.1327438 181.5955505  20.0872517
  59.0468025 181.8784332  19.0381126  59.5236053 180.5780792  20.0969238
  57.7506599 181.6885223  20.7916412  57.4058418 182.6854858  21.0660019
  56.7046738 180.9998932  19.9703808  57.1546288 180.1998291  19.3825798
  55.9321899 180.6756287  20.6676769  56.1896667 181.6842499  19.2961845
  57.9473991 180.9382629  22.1344528  58.5099220 181.5406036  22.8477993
  56.9946175 180.7037354  22.6091175  58.4350433 179.9675903  22.0444946
  61.6450462 182.0979919  19.9190540  62.2530632 181.0949860  20.3307648
  62.1226425 182.8751984  18.9163761  61.6242180 183.6819916  18.5688648
  63.4690590 182.6605530  18.3743668  63.6832619 181.5919495  18.3569431
  63.6159172 183.2112274  16.9860706  63.2890205 184.2496185  16.9314346
  64.6815491 183.2695465  16.7644100  62.9902420 182.3169556  15.9126587
  63.5452538 181.3791962  15.8868694  61.9213562 182.1385345  16.0299091
  63.0012856 182.9554443  14.2493610  64.7379990 183.0243530  13.9148083
  65.2887497 182.1523895  14.2675867  64.9539185 183.1229553  12.8509674
  65.2085114 183.8702240  14.4160166  64.5892715 183.3048706  19.1990223
  65.6015244 182.6452179  19.4673882  64.3390198 184.4796295  19.7461262
  63.4784279 185.0012512  19.6601105  65.3261032 185.0827179  20.6783466
  66.2597351 185.2309113  20.1357002  64.8447952 186.4962769  21.1663208
  64.4327927 186.9589233  20.2694836  64.1011963 186.3234100  21.9443207
  65.9888535 187.3430786  21.8210735  65.5145950 188.1991577  22.3009815
  66.4577408 186.7999268  22.6415787  67.1288757 187.6701050  20.7768459
  66.9842072 187.3944092  19.5858021  68.2651672 188.1690826  21.1209526
  65.6451187 184.3076172  21.9540291  66.7874527 184.1515503  22.4109135
  64.5772705 183.7513123  22.6286583  63.6148682 183.8441772  22.3366680
  64.8677368 182.8695679  23.8025131  65.3880920 183.4022827  24.5984688
  63.5154800 182.3712311  24.3120804  62.8797379 181.9627838  23.5265179
  63.6256447 181.5582428  25.0297184  62.6033554 183.5178528  24.8994675
  63.1010017 183.9184113  25.7826462  62.5249863 184.2820282  24.1261578
  61.2397995 182.9767761  25.3719654  60.5120163 183.7581635  25.5907307
  60.8693924 182.3808289  24.5378418  61.4680519 182.1468353  26.5916309
  62.4133644 182.1080780  26.9451599  60.5383835 181.3759003  27.0949764
  59.2746010 181.3990631  26.6682949  58.9464951 182.2312012  26.1992626
  58.6709671 180.6297760  26.9211578  60.7188835 180.7192688  28.2080746
  61.4959335 181.0114899  28.7833099  59.9132729 180.4077148  28.7315598
  65.7960663 181.7339478  23.4148579  66.7018356 181.3890991  24.1583099
  65.5787277 181.1173401  22.2244167  64.7749252 181.4353180  21.7020283
  66.3776627 179.9752808  21.6882954  66.4657135 179.2926331  22.5334854
  65.7591476 179.2472076  20.4684677  65.4165344 179.9321747  19.6928806
  66.7060776 178.2107697  19.9212322  66.9545746 177.5509033  20.7524529
  66.0820694 177.7443237  19.1589050  67.5523071 178.7288818  19.4700603
  64.5377502 178.4169006  20.9119759  63.6593132 179.0469666  21.0514984
  64.2274628 177.7826843  20.0815506  64.7648544 177.7594452  21.7511997
  67.7837296 180.4971161  21.4235306  68.6948547 179.8904572  21.9686928
  68.0031052 181.6480255  20.7170696  67.2301483 182.0777893  20.2292671
  69.3578110 182.2224579  20.5292015  69.9583435 181.5334778  19.9352570
  69.3377380 183.5402832  19.7466488  68.5650711 184.1686859  20.1895809
  70.2981873 184.0347137  19.8921680  69.1280670 183.5371704  18.2553406
  69.9908752 183.0194397  17.8362637  68.1943359 183.0133209  18.0508327
  68.9860687 184.9595337  17.8382492  68.2208633 185.5175629  18.3778343
  69.9747467 185.4115295  17.9176617  68.5878067 185.0569000  16.3682995
  69.1659470 184.3137665  15.8191109  67.5257339 184.8301544  16.2750854
  69.0240402 186.4053345  15.8800211  70.0002213 186.5797729  16.0717506
  68.8803787 186.4558258  14.8815660  68.5694580 187.2142944  16.2788372
  70.0982132 182.4590302  21.8164463  71.3038864 182.1960449  21.9064846
  69.3729401 182.9198914  22.8681183  68.4988174 183.3994293  22.7066994
  69.9563370 183.2036133  24.2035503  70.8113327 183.8647919  24.0623837
  68.8491592 183.9679413  24.9838581  68.3667145 184.6306763  24.2654419
  68.0979691 183.2943726  25.3963108  69.5159607 184.8327179  26.0805798
  70.0680237 184.1897278  26.7660599  70.1728134 185.5583038  25.6008186
  68.4901657 185.7281952  26.8766994  69.0471649 186.2570038  27.6501369
  68.1173248 186.4543610  26.1543655  67.3961411 184.9288025  27.4693947
  67.6422653 183.9901581  27.7495556  66.1993027 185.3246765  27.8638725
  65.7639618 186.6109161  27.7042923  66.3813324 187.2277832  27.1959419
  64.8333359 186.8881531  27.9820843  65.3770828 184.4512024  28.4264011
  65.7655258 183.5390930  28.6194649  64.5979996 184.7932281  28.9705944
  70.4284897 181.9343414  24.9364872  71.2969437 182.0865173  25.7410336
  69.9154053 180.7300415  24.5566635  69.0849762 180.6474915  23.9877300
  70.5992432 179.4871063  24.9477615  71.0283356 179.6029205  25.9430408
  69.5277176 178.3840332  25.1114140  68.7967758 178.5978699  25.8912144
  68.9723206 178.2211304  24.1877842  70.0639801 177.0230865  25.6270676
  69.3387299 176.2212067  25.4888420  70.8987503 176.7296753  24.9905415
  70.4891205 177.0839691  27.0831337  69.6661072 176.9902039  27.9649887
  71.7869949 177.0189209  27.3178196  72.0183868 177.0146790  28.3009510
  72.4383087 177.0079956  26.5459576  71.7259064 179.0259552  24.0031624
  72.8151627 178.6532288  24.4364719  71.5086823 179.1994171  22.6554070
  70.6299362 179.5988464  22.3581524  72.5225372 178.6979675  21.6682568
  72.6708908 177.6591187  21.9630089  72.0082626 178.8988190  20.2164116
  71.9818802 179.9813843  20.0921268  72.7714920 178.3836060  19.6331959
  70.6661148 178.3992462  19.7891960  69.9090958 178.8275757  20.4461288
  70.3392258 178.8541565  18.4085045  71.1539993 178.4337158  17.8190308
  69.3430023 178.5449371  18.0922413  70.3254395 179.9294891  18.2308083
  70.6621475 176.8719788  19.8502045  71.0135574 176.4251404  20.7802296
  69.6653214 176.4673309  19.6749954  71.3578033 176.5989838  19.0567112
  73.8762817 179.5045929  21.8492298  74.9265976 178.9418488  21.5889912
  73.7898331 180.7672119  22.2253342  72.8877106 181.1888123  22.0563984
  74.9523239 181.6291962  22.4494457  75.5448074 181.5557709  21.5374832
  74.5432434 183.0881958  22.5999966  73.6130066 183.1860046  23.1596355
  75.2320023 183.5553284  23.3039265  74.5374908 183.9087067  21.3266640
  75.7315445 184.3005981  20.6831646  75.2751999 184.9074707  19.5210972
  75.8394470 185.4759064  18.7965832  73.9012527 184.9384003  19.4901085
  73.3885956 185.3224182  18.7092056  73.4236145 184.2547150  20.6104507
  72.4058762 184.2206879  20.9702473  75.9343796 181.1244659  23.5262127
  77.1005707 181.4400177  23.4768963  75.4245682 180.3301392  24.4916592
  74.4751587 179.9881592  24.4497547  76.2547531 179.5698090  25.4350109
  77.1483383 180.1699524  25.6065941  75.4437790 179.3740540  26.7462387
  74.3999023 179.0964508  26.6001244  75.8494415 178.5021820  27.2594604
  75.4493408 180.5372162  27.6983566  76.4655762 180.9198608  27.6037655
  74.7610626 181.3311615  27.4084568  75.2110443 179.9805756  29.1869259
  75.9415131 180.2274628  30.1582298  74.1925583 179.2891541  29.3721523
  76.7759933 178.2591095  24.8954830  77.7115250 177.6946259  25.4525948
  76.1901550 177.6769104  23.8187428  75.5695801 178.1990662  23.2167892
  76.7994919 176.5039825  23.1641293  77.2734604 175.9405975  23.9679184
  75.6748962 175.5952454  22.5742836  75.1879578 176.2534332  21.8547058
  76.1380768 174.6884460  22.1853542  74.6273575 175.0732574  23.4895611
  74.8674469 174.7170258  24.7576160  75.7803421 174.9359741  25.2915344
  73.7920990 174.0138702  25.2834854  73.7861633 173.6069183  26.2078495
  72.7664490 173.8692780  24.3594379  71.5372696 173.2156830  24.4212818
  71.1922226 172.7096252  25.3108025  70.7440872 173.2087708  23.2517624
  69.8098755 172.6679840  23.2865582  71.3005219 173.6690369  22.0343304
  70.7841415 173.5264435  21.0965614  72.5116882 174.3594818  22.0300522
  72.8289261 174.8142395  21.1032543  73.2796249 174.4875793  23.1953602
  77.8638535 176.8616486  22.1013317  78.7274857 176.0391388  21.8124657
  77.8838196 178.1212616  21.6321487  77.1307373 178.7533112  21.8634205
  78.9068985 178.6291809  20.7754002  79.7901535 177.9995728  20.8830490
  78.4100571 178.5130310  19.3720398  77.8511353 177.5868378  19.2382679
  77.6562271 179.2766113  19.1802921  79.4986954 178.7280426  18.3688374
  80.6513290 179.0738373  18.7144413  79.2494049 178.4643402  17.1518555
  79.2688599 180.1384125  21.0860348  78.7031937 181.0631256  20.5332222
  80.1592865 180.3179016  21.9907055  80.5225296 179.4298248  22.3061123
  80.5370178 181.6688690  22.4836674  79.5838165 182.0922394  22.8003330
  81.4374771 181.4975281  23.7636623  82.4171219 181.0825195  23.5266876
  81.5802994 182.4877625  24.1962605  80.8816299 180.6493683  24.9091549
  81.3038864 181.1201935  25.7969189  79.7918854 180.6296539  24.9218159
  81.4361877 179.1698151  25.0053368  81.3516846 178.4898529  23.9541130
  81.8975296 178.7366943  26.0817051  81.1799469 182.5793915  21.4191189
  81.4051514 183.7766724  21.6489811  81.6621552 182.0385132  20.3141518
  81.4885635 181.0495453  20.2050247  82.2253723 182.7362061  19.2167854
  82.6634445 183.6952057  19.4934139  83.3966370 181.9508362  18.5888443
  83.0175400 180.9882202  18.2457237  83.8014145 182.4702148  17.7202091
  84.5147095 181.7490082  19.6017780  84.5870743 180.7185364  20.2753563
  85.4721069 182.6799164  19.6968346  86.2784882 182.5113373  20.2811508
  85.4531860 183.5347595  19.1592655  81.2432480 183.0348816  18.0133400
  81.6573181 183.5534210  16.9851379  79.9849243 182.5787659  18.1027222
  79.7713013 182.0608521  18.9431038  79.0196228 182.5753174  16.9835815
  79.4044189 182.0629272  16.1018314  77.7735977 181.8464966  17.4288273
  77.9521866 180.8494415  17.8314285  77.3516998 182.4201355  18.2540855
  76.6502533 181.6758881  16.3646679  77.1497574 181.9490967  15.4351749
  76.0451355 180.3313446  16.4197006  75.7083206 180.1885834  17.4464779
  75.1622543 180.3616333  15.7811775  76.8073883 179.5870209  16.1893768
  75.4818649 182.6550751  16.6985130  75.7470398 183.7123260  16.6995411
  74.7032776 182.4364624  15.9676886  74.9797211 182.4716797  17.6484108
  78.6297913 184.0164337  16.6113625  78.2491837 184.8087921  17.4132862
  78.6218033 184.1902924  15.2725010  79.1054230 183.4534912  14.7792015
  77.9608459 185.3216095  14.4744043  77.7031326 186.1458435  15.1394691
  79.0025253 185.7830658  13.3352470  79.1876984 184.9512024  12.6556778
  78.5932083 186.6313171  12.7865791  80.2776031 186.2779388  13.9243746
  80.0823593 187.1700134  14.5195084  80.5765762 185.5306396  14.6594086
  81.4754486 186.6113281  12.9906387  82.3667145 186.8786926  13.5583162
  81.5858765 185.6983490  12.4055300  81.1267776 187.8492889  12.0798235
  81.4755859 187.7203674  11.0552187  80.0474091 187.9990692  12.0548859
  81.8365097 189.0894623  12.5557547  82.8000793 189.1669922  12.2631330
  81.3610153 189.9390717  12.2871046  81.9171600 189.1486969  13.5607853
  76.6529922 184.9580994  13.9704943  76.5321350 183.8767853  13.3561411
  75.6196060 185.7495880  14.2461643  75.7755890 186.6284027  14.7188749
  74.1899033 185.3765411  13.8992729  74.0329742 184.4132385  14.3845911
  73.1907120 186.3914490  14.3371925  73.4493790 187.3906555  13.9868116
  72.2597046 186.1362152  13.8310452  72.8763809 186.4328613  15.8969612
  73.7175598 185.8735504  16.6155701  71.7756042 186.9227448  16.2846813
  73.9903107 185.0939789  12.3386097  73.0237045 184.4616241  12.0069056
  74.8988266 185.5475159  11.4805155  75.6241531 186.1529694  11.8374949
  74.9384079 185.4137115  10.0209208  74.0556946 185.8922882   9.5967960
  76.1372223 186.1312561   9.4840765  76.9869308 185.4964600   9.7353268
  76.1036987 186.2104187   8.3974714  76.2838974 187.5804596   9.9785786
  76.5621490 187.6638489  11.0291624  77.0898285 188.0793915   9.4403915
  74.9472122 188.2885742   9.7336836  74.4369354 188.2910004   8.5726995
  74.3421021 188.8771667  10.6652479  75.0241013 183.9074554   9.5549746
  74.7428513 183.6808624   8.3998346  75.4803543 182.9515686  10.4152880
  75.8169861 183.2666168  11.3139095  75.5058823 181.4881897  10.1072817
  75.6632156 181.3090515   9.0436764  76.5994415 180.8294525  10.9078178
  76.7907104 179.8217163  10.5390453  77.5578766 181.2995911  10.6876602
  76.1854706 180.8467407  12.3166571  76.7154541 180.1865845  12.7693357
  74.1356888 180.8026886  10.3553648  73.9330750 179.6780701   9.9727039
  73.3042908 181.4581146  11.1052322  73.5613632 182.3938751  11.3851748
  71.9167938 180.9713898  11.4422388  71.8130112 179.8921204  11.3303871
  71.5656052 181.2315216  12.8955116  71.8516006 182.2745056  13.0315561
  70.5042343 181.0653076  13.0798006  72.4435883 180.4505615  14.0146379
  73.4654083 180.8299866  14.0099564  71.9794617 180.7348328  15.4685192
  70.9312286 180.4518280  15.5645676  72.6268616 180.2239227  16.1812325
  71.9625473 181.8029022  15.6853504  72.4311142 178.9077454  13.7161226
  72.8946991 178.7384186  12.7442589  73.0086060 178.3327026  14.4399490
  71.4186630 178.5072937  13.7679720  70.8161545 181.6155396  10.5521002
  70.9427567 182.7560425  10.0524235  69.7192001 180.8476715  10.2814970
  69.5451126 179.3880157  10.3876953  69.1867218 179.2393799  11.4063063
  70.4939194 178.9166565  10.1314039  68.4441681 179.0378113   9.4107151
  67.9555893 178.1426544   9.7955360  68.9604645 179.0050049   8.4513102
  67.5837021 180.2983246   9.2588778  66.8059616 180.2732086  10.0221481
  67.2122498 180.2676697   8.2345819  68.5975418 181.4071960   9.5173750
  68.9875641 181.7919617   8.5750637  67.8044586 182.5292816  10.2294617
  67.7208786 182.5276489  11.4718981  67.2084808 183.3991547   9.4269447
  67.3248901 183.2461243   8.4354153  66.2439194 184.4883118   9.8766890
  66.6011429 184.6678314  10.8907232  66.4115372 185.7638855   9.0737610
  65.7771454 186.5667419   9.4493589  67.8413010 186.2637482   9.2775116
  68.6313400 185.6030884   8.9204512  67.9554214 187.1987915   8.7290831
  67.8911667 186.4742126  10.3458357  66.2846680 185.5092621   7.6884422
  66.5639496 186.2344513   7.1247811  64.7875519 184.0372162   9.9316692
  63.9886703 184.4886169  10.7392988  64.4202728 183.0451355   9.0612907
  65.0759201 182.6543121   8.3998604  63.0772820 182.4555054   8.8914604
  62.3697739 183.2646332   9.0726919  62.9191322 181.8338013   7.4803572
  63.3165779 182.4752655   6.6938024  63.4862061 180.9029541   7.4742260
  61.4573708 181.7041931   7.1692147  60.6227760 182.5470581   7.3786149
  61.0898781 180.4957581   6.6963153  60.1635132 180.3786621   6.3113060
  61.8218155 179.8009949   6.7372055  62.8196831 181.4433899   9.9784451
  63.6488266 180.5481873  10.1224098  61.7264023 181.5236969  10.7712250
  60.7872047 182.6617584  10.8138523  60.5981598 183.1759338   9.8715153
  61.1480789 183.4853668  11.4299231  59.6039124 182.0604858  11.5572786
  58.9060631 181.5295258  10.9098330  59.1468697 182.8498535  12.1540489
  60.1578407 181.1784363  12.6313334  59.4285469 180.3929443  12.8293867
  60.4845772 181.7392731  13.5070086  61.4474220 180.6659393  11.9436369
  62.2759666 180.7010345  12.6510124  61.2928314 179.1911774  11.6218767
  61.7799683 178.3005829  12.3523197  60.7491455 178.8662262  10.4259949
  60.4202766 179.6333466   9.8572474  60.5970573 177.4779358   9.9858541
  60.0053101 176.9422607  10.7281485  59.8996277 177.4339752   8.6184902
  60.3912735 178.2009583   8.0200500  60.0345840 176.1416321   7.8790188
  59.7472229 175.2623138   8.4554901  59.4856720 176.0578766   6.9410534
  61.0658951 176.1571808   7.5265069  58.3729591 177.6538544   8.6826191
  57.7809715 177.2378235   7.8674040  57.9856567 177.1953278   9.5924864
  58.0000534 179.1110992   8.6629992  58.5172653 179.6600800   7.8761010
  56.9222794 179.2017212   8.5277395  58.2879333 179.5829468   9.6024599
  61.9771957 176.8249359   9.9996939  62.1823425 175.8436584  10.7117357
  62.8655663 177.3822937   9.1960449  62.4894905 178.1522369   8.6613998
  64.2502594 176.9611053   9.0144129  64.2752838 175.9733276   8.5542383
  65.0169754 177.8632050   8.0531597  65.1401443 178.8514099   8.4963131
  65.9500275 177.3421021   7.8387642  64.2897720 178.1354675   6.7114220
  63.0475502 178.4076080   6.6630335  65.0070114 178.1299133   5.6796393
  65.0842056 176.7957306  10.2604008  65.7887115 175.8227386  10.4374952
  64.9701614 177.8072205  11.1481533  64.3560028 178.5426025  10.8285809
  65.6251221 177.9454041  12.4032249  66.6997757 177.7662964  12.3694029
  65.3896713 179.3625946  12.9089890  65.7524872 180.0282440  12.1257992
  64.3302536 179.5787964  12.7711372  65.8814850 179.6394653  14.3120680
  65.0523758 179.2758789  15.3739662  64.0849686 178.8485260  15.1551113
  65.4229660 179.6325684  16.6655197  64.7814941 179.3940430  17.5010014
  66.6127167 180.3293152  16.8879700  66.9301834 180.5956421  17.8853111
  67.5051422 180.6087494  15.8000708  68.4836655 181.0018921  16.0331459
  67.1119156 180.2691193  14.5440350  67.7678833 180.3345184  13.6885653
  65.1361618 176.8475037  13.3432474  65.8347931 176.0771332  13.9237881
  63.8239632 176.6725464  13.4776220  63.1543198 177.3400879  13.1225538
  63.3071899 175.6174927  14.3030958  63.8399582 175.7142029  15.2490921
  61.8864174 175.8161621  14.6106415  61.5305405 175.2561340  15.4754076
  61.6769524 176.8456268  14.9011927  61.1342125 175.5180054  13.4317770
  60.9754448 176.3170624  12.9239435  63.7046165 174.1974487  13.8366909
  64.0712128 173.3076477  14.6459150  63.6461372 173.9648285  12.5054750
  63.1303635 174.6196136  11.9350891  64.1068192 172.7766571  11.8324175
  63.5085716 171.9682617  12.2527847  63.7818413 172.9062958  10.3012075
  63.9215698 173.9494324  10.0176258  64.5161133 172.3001251   9.7706280
  62.4487114 172.4426117   9.7880802  61.7005310 171.4188385  10.3979769
  62.0226326 171.1326447  11.3883009  60.5231361 170.9123840   9.8132372
  59.8978462 170.1985321  10.3288126  60.1132774 171.4394531   8.5832796
  58.8870506 171.0598755   8.1019917  58.6486969 171.8221283   7.5693007
  60.8650513 172.4025879   7.8844733  60.4757500 172.6987915   6.9216080
  62.0226593 172.8838043   8.5162621  62.6654701 173.5579224   7.9696665
  65.5593414 172.4741058  12.1732798  65.8500977 171.3809357  12.6770468
  66.4901962 173.4204712  12.0459766  66.2453613 174.3026123  11.6193800
  67.9176178 173.2899323  12.4393930  68.4084091 172.4926758  11.8811855
  68.6327820 174.6909332  12.2261791  68.5789719 174.9661713  11.1728745
  68.1516190 175.5282745  12.7316017  70.0865860 174.6895599  12.6302824
  70.4875259 175.6824951  12.4267273  70.2013931 174.4738007  13.6925297
  70.9779510 173.7700043  11.7121792  71.9330368 173.7664642  12.2374506
  70.6425934 172.7338715  11.6667814  71.0841217 174.3760834  10.3718739
  70.3340912 174.0830383   9.7622232  72.0079575 175.2813416   9.9438725
  72.9784241 175.8215637  10.7051773  72.9886017 175.5755310  11.6847000
  73.6624603 176.4491577  10.3072796  72.0763321 175.6264801   8.6960688
  71.5011673 175.1339722   8.0276957  72.8326416 176.2460632   8.4426413
  68.0309372 172.8313141  13.9724169  68.8012161 171.9044952  14.2790203
  67.2480698 173.3482513  14.8910151  66.6815338 174.0726166  14.4733715
  67.3529587 173.1318359  16.3377113  68.4047928 172.9623718  16.5679855
  66.9769287 174.3959045  17.1528034  66.0510788 174.8227386  16.7671642
  66.8885651 174.2099609  18.7302475  67.8824158 174.1576691  19.1747913
  66.3451538 175.0700378  19.1214981  66.3771439 173.3260651  19.1113930
  67.9686432 175.5357971  17.0257854  67.9550171 175.6676178  15.9438696
  67.5241013 176.4241486  17.4744778  68.9731369 175.3675995  17.4141426
  66.6832047 171.7725372  16.7254581  67.2575836 171.0230408  17.5067692
  65.4820328 171.4678955  16.1546574  65.1124954 172.1696167  15.5292482
  64.8619919 170.1247559  16.2343807  64.7026596 169.8302765  17.2716846
  63.4308052 170.1343842  15.6411476  63.5340652 170.5752716  14.6496525
  63.0002213 169.1352386  15.5748005  62.7355461 170.7434235  16.2188892
  65.7942200 168.9978943  15.6121635  65.8406601 167.9426270  16.2712574
  66.4885635 169.2625885  14.5017128  66.3319550 170.1425476  14.0313416
  67.4988403 168.3767395  13.9712667  67.0000610 167.4361572  13.7375174
  68.0580444 168.9752808  12.6720228  68.3081894 170.0285645  12.7990074
  69.0169907 168.4725342  12.5464573  67.4213333 168.8472443  11.7966347
  68.5283813 168.1788483  15.0687542  68.8080444 167.0582275  15.4836988
  69.1446991 169.2625122  15.5686350  68.9153595 170.2134705  15.3172836
  70.3388367 169.0663300  16.4308262  70.7163086 168.1008911  16.0938702
  71.4179306 170.0726318  16.1398754  72.3283615 169.8273926  16.6867523
  71.7876663 169.9164124  15.1264639  70.9239197 171.7063446  16.4208870
  70.1351929 171.8981018  15.3597345  70.1473923 168.9146729  17.9180756
  71.1076202 168.6678925  18.6570339  68.9177628 168.9458923  18.4768543
  68.1315689 169.2137299  17.9021740  68.6211548 168.7328491  19.8652191
  69.2836456 169.3689270  20.4522667  67.1520081 169.1208344  20.1132469
  66.5900879 168.9325562  19.1984272  66.7572937 168.4045105  20.8337879
  66.8740158 170.5676270  20.5427513  67.4644623 171.2387848  19.9190350
  65.4116440 170.8986359  20.6460686  64.9223938 170.3738556  21.4666481
  65.3554001 171.9629669  20.8743553  64.9839783 170.6674805  19.6704788
  67.4624023 170.7669067  21.9914627  68.5500565 170.7449799  21.9233456
  67.0779953 171.7263336  22.3376141  67.1355515 169.9736328  22.6637688
  68.8079758 167.2498779  20.3849392  68.4142227 166.2791901  19.7107239
  69.4170761 167.0115051  21.5106335  70.0687637 168.0807037  22.2858829
  69.3206406 168.7260895  22.7462044  70.7503738 168.6583252  21.6614990
  70.8778000 167.3995361  23.3632660  70.2355042 167.2756500  24.2351665
  71.7534332 168.0039825  23.5999413  71.1667557 166.0375519  22.8481255
  71.3716125 165.3384705  23.6589394  72.0182343 166.1290894  22.1738033
  69.9340439 165.7195892  22.0213547  70.2018051 165.0596008  21.1962318
  68.8367767 164.9573975  22.8211594  68.7081146 164.9939880  24.0734711
  67.9016495 164.1971741  22.1048565  67.9287033 164.0877228  21.1011677
  66.6832886 163.5338593  22.7099228  66.8923645 163.3249969  23.7590961
  65.4802246 164.4829102  22.5946045  64.5365753 163.9404144  22.5371037
  65.2653961 165.3190765  23.8436108  65.9501648 166.1661835  23.8835430
  64.2306442 165.6605835  23.8711224  65.3687668 164.7290649  24.7542725
  65.4980392 165.3272858  21.2758007  66.2574844 166.1019135  21.3820667
  65.7285004 164.6787109  20.4306164  64.1199570 165.8583374  20.9504852
  63.7347412 166.5406036  21.7082577  64.2061081 166.4490509  20.0384884
  63.4392128 165.0220184  20.7915192  66.4365616 162.2341766  22.0846558
  67.0282745 161.8979187  21.0344105  65.7055511 161.4120026  22.8420677
  65.2616348 161.7609253  23.6794968  65.3787384 160.0061035  22.4529839
  66.2929993 159.5192413  22.1135635  64.8485184 159.2922211  23.6706848
  64.5881958 158.2487183  23.4934025  65.6376648 159.3096924  24.4223728
  63.6980209 159.9149017  24.2716961  63.8572540 160.9693909  24.9164848
  62.5383224 159.3864899  24.2035656  64.3769150 159.9763489  21.2609138
  63.8217506 160.9846039  20.8550568  64.2168808 158.7698364  20.6615009
  64.7455521 157.9946594  21.0352592  63.4189339 158.6779480  19.3801212
  63.8033409 159.4427338  18.7052593  63.7285805 157.3873901  18.6044846
  63.3853569 156.5231934  19.1732197  63.3478889 157.3186188  17.5854435
  65.1902695 157.2134705  18.3959675  65.8089066 158.1540070  17.7956715
  65.7632751 156.2142944  18.8859253  61.8801537 158.9383392  19.4153919
  61.2153549 159.6177368  18.6472473  61.2723312 158.5346985  20.5920639
  61.7836990 158.1223145  21.3592224  59.8327599 158.7615204  20.7913742
  59.3171616 158.3185883  19.9392738  59.4425545 157.8936005  22.0006523
  59.9339943 158.2396240  22.9099693  58.3702812 157.8630676  22.1940269
  59.7648125 156.8641357  21.8442078  59.4670715 160.2772827  20.9701424
  58.5501595 160.7424622  20.2528439  60.3832169 161.0803528  21.5775547
  61.2013855 160.6777344  22.0118332  60.4205971 162.5449982  21.6016407
  59.3601456 162.6998291  21.8005600  61.2132683 162.8933411  22.8748760
  60.7390099 162.3499756  23.6921501  62.2549706 162.5885620  22.7745361
  61.1243553 164.3846130  23.2376137  61.7553596 165.0461426  22.6440620
  59.6973038 164.9117737  23.3585796  59.1223259 164.2368011  23.9925423
  59.6702499 165.8886871  23.8413086  59.3023376 165.1351166  22.3675079
  61.6560707 164.4307556  24.6891460  62.6148453 163.9370728  24.8476562
  61.7877007 165.4883575  24.9177418  60.9105339 164.1158447  25.4192848
  60.7934265 163.2511139  20.3315926  60.0786781 164.2091522  20.0146790
  61.7218513 162.7779388  19.5275288  62.1355019 161.9655762  19.9623451
  62.0037346 163.2035065  18.1454849  62.0313110 164.2897339  18.0591068
  63.3694458 162.6593018  17.6547718  63.3561287 161.5693970  17.6480598
  63.5202675 163.0117188  16.6343994  64.4840546 163.2558136  18.5131741
  64.5448227 164.3385010  18.4026814  64.3052979 163.0212708  19.5625248
  65.8567047 162.7695770  18.1355190  66.5951080 163.1333618  18.8500233
  65.8058548 161.6871490  18.2534142  66.3662262 162.9750214  16.7150669
  66.3238373 162.1482544  16.1364803  67.1481018 164.0036621  16.3454132
  67.3427429 165.0501709  17.0658016  66.7096863 165.2996368  17.8122005
  67.8301315 165.8423157  16.6720295  67.8336411 163.9648590  15.2409887
  67.9379578 163.0949860  14.7384348  68.3475800 164.7703400  14.9136581
  60.8701096 162.8825073  17.1032505  60.6970291 163.7313538  16.2230892
  60.0190506 161.8484192  17.3119259  60.3087807 161.1003723  17.9255943
  58.7183380 161.6925964  16.7380199  58.8259735 161.8463745  15.6642981
  58.2438469 160.1767578  16.9757061  58.5895615 159.9568939  17.9857788
  56.7561226 159.9266815  17.1350422  56.2710075 160.2531281  16.2151470
  56.5381050 158.8672028  17.2695236  56.4864960 160.4356232  18.0604458
  58.7612915 159.2095490  15.8660765  58.1121140 159.2304077  14.9907284
  59.7113686 159.5706024  15.4722481  58.9596291 157.7307587  16.3472557
  58.0007629 157.2886505  16.6178303  59.2755280 157.1048584  15.5126553
  59.6671066 157.6532288  17.1728268  57.6699409 162.7280426  17.1698856
  56.9704285 163.2742920  16.2986870  57.4397888 162.9097137  18.4826965
  57.8779297 162.2830963  19.1426067  56.4949646 163.9020996  19.0205593
  55.4900246 163.5959930  18.7298756  56.4264717 163.9485474  20.6110897
  57.3873100 164.1586914  21.0809174  55.7524834 164.7537842  20.9033928
  55.9213142 162.6833496  21.3443298  56.4760132 161.8019867  21.0224590
  56.1319084 162.8473511  22.4011421  54.4621468 162.2742310  21.1239929
  53.7768097 162.6138763  20.1682491  53.9627342 161.5632935  22.0689316
  53.0916939 161.0822754  21.8956547  54.4672203 161.2999115  22.9033337
  56.8550873 165.2755127  18.4706154  55.9866714 166.0048523  18.0902424
  58.1223030 165.6700287  18.4538994  58.7509537 165.1672974  19.0639553
  58.6337280 166.9656219  17.9175491  58.0955200 167.7637634  18.4288254
  60.1095695 167.1745300  18.3366184  60.1995163 166.8851624  19.3836517
  60.7334862 166.5340271  17.7132530  60.6716766 168.5739441  18.1456966
  60.6896858 168.7512054  17.0703526  59.7853851 169.6863251  18.7189827
  59.6223679 169.5203705  19.7838688  60.2414856 170.6685791  18.5955849
  58.8539276 169.7721252  18.1593971  62.0317993 168.7269440  18.7709999
  62.7507248 168.0341187  18.3336849  62.3760605 169.7564392  18.6723347
  62.0245590 168.5696259  19.8495636  58.4752121 167.0449066  16.4005928
  58.0391693 168.0787354  15.9088850  58.9147415 166.0347443  15.6597652
  59.3582191 165.2582703  16.1293526  58.7427826 165.9086609  14.1835375
  59.3022308 166.7286835  13.7333288  59.3022728 164.5916290  13.6488285
  60.3884277 164.6800537  13.6722126  58.8301544 163.8590240  14.3034210
  59.1115646 164.0184021  12.2173004  58.0407143 163.8658752  12.0826893
  59.7187767 164.9192200  11.2161560  60.7895622 165.0398407  11.3803768
  59.5548210 164.6021423  10.1862669  59.3447800 165.9415741  11.2712021
  59.9744225 162.7166901  12.0050936  59.6331558 161.9273376  12.6748400
  59.8856850 162.2829132  11.0090694  61.0255127 162.8729095  12.2478008
  57.2731857 166.0930634  13.8380337  57.0228386 166.5100555  12.7053862
  56.3186226 165.6284332  14.6201868  56.5700951 165.1976929  15.4984436
  54.8971329 165.7191467  14.2709541  54.6751213 165.2929077  13.2926226
  54.0702133 164.9519043  15.3478498  54.5675621 165.0902405  16.3078537
  53.1143990 165.4355316  15.5494061  53.6776123 163.4742584  15.1314564
  53.1782913 163.3039246  14.1776381  54.5483055 162.8243713  15.0440216
  52.7012672 163.0532837  16.3241634  53.2699318 162.9956665  17.2522812
  51.9990196 163.8234558  16.6432076  51.9679298 161.7251282  15.9960384
  51.5698204 161.8563995  14.9898710  52.7504959 160.9833221  15.8366013
  51.0067902 161.4516144  17.0018711  50.2797508 162.1507721  16.9498768
  50.5803146 160.5773163  16.7302036  51.4302673 161.3480530  17.9129372
  54.3767395 167.1442566  14.1051073  53.2552719 167.3533936  13.5386896
  55.0073318 168.0664673  14.9367895  55.9221725 167.8526459  15.3075333
  54.3974533 169.3278351  15.3797979  53.3928680 169.1564941  15.7665157
  55.2629166 170.0637970  16.4342003  56.2638741 170.3229675  16.0892220
  54.5862236 171.4024658  16.7470360  53.5047150 171.3778992  16.8806000
  55.0211449 171.8172455  17.6563797  54.7130241 172.1430969  15.9574146
  55.4504013 169.2162781  17.6992531  56.0149040 168.3423157  17.3742504
  56.0611801 169.8586426  18.3336105  54.1076164 168.9227905  18.4216232
  53.4437599 168.3130188  17.8087749  54.3734055 168.3000793  19.2758427
  53.6163368 169.8212280  18.7951946  54.2814331 170.2770386  14.1283388
  55.1768112 170.2898254  13.2697611  53.1250572 170.9589539  13.9527092
  52.4701729 170.9771729  14.7214060  52.6256638 171.4710388  12.6352024
  52.8643417 170.7410431  11.8617477  51.5435524 171.4726257  12.7660952
  53.1463432 172.8777771  12.3253889  53.6873016 173.0499268  11.2443018
  53.0433884 173.8330688  13.2935886  52.6426888 173.5134125  14.1638489
  53.6710052 175.1610565  13.1052380  53.8382492 175.3190002  12.0397892
  52.7903862 176.2341919  13.6838942  51.8745384 176.4642944  13.1394930
  52.5803719 175.8757782  14.6916351  53.4328575 177.5231934  13.6479397
  53.0584641 178.0545502  12.9414711  55.1146507 175.1922607  13.5909081
  55.3606224 174.5049133  14.6042242  55.8921967 176.1867981  13.1142349
  55.6231956 176.7390137  12.3124838  57.1165276 176.6337738  13.7797775
  57.7708321 175.7669373  13.8724079  57.8745766 177.6552887  12.9290762
  57.1736832 178.2855682  12.3817320  58.5889473 178.2800598  13.4652004
  58.2587967 177.1472321  12.0445662  56.8572655 177.2172546  15.2071600
  57.7355499 177.0802155  16.0592060  55.7021294 177.8512573  15.4051542
  55.1273727 178.0656738  14.6027927  55.3999939 178.3828125  16.7242756
  56.1863289 179.0836029  17.0047741  54.1320038 179.2529602  16.7246246
  53.3985710 178.5705414  16.2951031  53.6464043 179.5931702  18.1619301
  54.4285545 180.1177979  18.7106552  52.7641220 180.2327576  18.1863537
  53.4491119 178.7006073  18.7556667  54.3205757 180.5105743  15.7970667
  54.9475861 181.2093353  16.3508663  54.8150673 180.2210083  14.8698521
  52.9883842 181.1536713  15.4474525  52.5848732 181.6395264  16.3358345
  53.1364365 181.9282379  14.6949720  52.3194008 180.3709106  15.0899153
  55.4190788 177.2427216  17.7642574  56.1735039 177.2944489  18.7074490
  54.5740356 176.2246246  17.5927258  54.0077629 176.1607056  16.7588482
  54.4672050 175.0810547  18.5271797  54.3695259 175.2683258  19.5965214
  53.4312363 174.1754303  17.8704758  53.8061943 173.9419098  16.8739929
  53.3143845 173.2566833  18.4452438  51.9951248 174.6807251  17.7129402
  51.5593071 174.6523743  18.7116184  51.9678688 175.7082977  17.3503819
  51.1554871 173.9800110  16.6468430  51.6250000 173.3131714  15.7495623
  49.8237343 174.1030273  16.6602783  49.2791634 173.5895844  15.9821081
  49.4381905 174.7995911  17.2817822  55.7702866 174.3740692  18.5760612
  56.2098007 173.9159698  19.6579838  56.4826965 174.1317444  17.4246635
  56.1666031 174.4202881  16.5098267  57.8264694 173.5216064  17.4803543
  57.6642609 172.5432129  17.9326077  58.2769127 173.2618866  15.9935656
  57.3292084 173.0116425  15.5167646  58.7233009 174.1616364  15.5701370
  59.2263680 172.0226440  15.8568687  60.2407341 172.2079926  16.2101421
  58.8559494 171.2153473  16.4886532  59.2194748 171.4384460  14.4241838
  59.9808617 170.6588745  14.4496527  58.2419319 171.0262909  14.1739149
  59.6810989 172.4532623  13.4401369  60.5776367 172.8843384  13.6147327
  59.0145988 172.8295135  12.3884430  57.8618050 172.3644714  11.9986382
  57.3603859 171.6858826  12.5537901  57.4253578 172.7351837  11.1666603
  59.5588303 173.7424622  11.6500435  60.4006844 174.2399292  11.9028206
  58.9954910 173.9914398  10.8495722  58.8170509 174.2444305  18.4148407
  59.3723335 173.5943909  19.2726994  58.9613495 175.5228271  18.3026047
  58.6182632 176.0635834  17.5215874  59.7617989 176.4403687  19.1961212
  60.7480507 175.9774933  19.2301712  59.7604523 177.8999786  18.7525902
  58.7079849 178.1714020  18.6704941  60.2981873 178.5686188  19.4247990
  60.3087158 178.2808380  17.3828983  60.1457138 177.5138245  16.6257858
  59.5778961 179.5221100  16.7691555  60.0443153 180.4177704  17.1794643
  59.7373657 179.5868378  15.6928282  58.5207901 179.5348663  17.0346050
  61.8473129 178.4394226  17.3939648  62.3107910 177.4754181  17.6037521
  62.2061615 178.8558960  16.4527531  62.1305618 179.1794434  18.1424503
  59.3983650 176.3306732  20.6656952  60.2480888 176.1777039  21.4772053
  58.1249199 176.3325195  20.9716358  57.4608765 176.3667603  20.2113934
  57.5455666 176.1188965  22.3007736  57.8978004 176.8238983  23.0537758
  56.0356293 176.2435913  22.1334667  55.6752129 175.7073975  21.2555695
  55.6170578 175.7820282  23.0278091  55.5262527 177.7373199  22.0732079
  55.7578430 178.1169434  23.0683746  56.0505142 178.2664337  21.2774143
  53.9692001 177.7613831  21.8868904  53.6021042 178.7876129  21.9006500
  53.6946678 177.3672638  20.9084148  53.3210602 176.9298401  22.9540329
  53.2729759 175.9530792  22.7016182  53.0304947 177.2746582  24.1420231
  53.1766968 178.4884491  24.5894642  53.4795036 179.1718445  23.9102077
  52.8423958 178.7635651  25.5019646  52.5136566 176.4397888  24.9722252
  52.2699089 175.4881592  24.7375431  52.3772354 176.7301788  25.9299107
  58.0099564 174.7904968  22.8920689  58.4903831 174.7164154  24.0353909
  57.9672775 173.7604218  22.0317936  57.6059914 173.8761292  21.0957470
  58.2891617 172.3946838  22.4290524  57.6346169 172.3129272  23.2968006
  57.7897415 171.4806671  21.3117371  56.7825737 171.7637329  21.0058231
  58.4182434 171.6535187  20.4381199  57.9568443 169.8637848  22.0510750
  57.6219444 169.1557007  20.9687748  59.8233185 172.2682495  22.6335583
  60.3184166 171.8474426  23.6629734  60.6530495 172.7710266  21.6503754
  60.2368507 173.0929565  20.7882614  62.1225662 173.0095825  21.8223801
  62.7013550 172.0867310  21.7842140  62.7176590 173.7730408  20.6329556
  62.0669479 174.6295929  20.4568768  63.7167740 174.1106567  20.9084187
  62.6905365 173.0069427  19.3098984  63.5377693 172.3215790  19.3339024
  61.8102226 172.3697357  19.2254391  62.6294479 174.0022888  18.1528168
  63.4318542 174.9637909  18.0316753  61.8059731 173.6844025  17.2779636
  62.4747925 173.7614136  23.1090221  63.3636627 173.3229828  23.8994026
  61.8232231 174.8516693  23.4623890  61.1007462 175.1624908  22.8287334
  62.0393753 175.5476685  24.7060280  63.0800171 175.8319244  24.8621445
  61.3344612 176.9282532  24.5622768  60.2650566 176.8446503  24.3686638
  61.3871536 177.4409637  25.5227242  61.9931145 177.8236084  23.5106182
  62.2891388 177.2437134  22.6364441  61.0621262 178.9336090  23.1143417
  60.7349396 179.6669922  23.8513641  61.6512985 179.4179688  22.3356400
  60.2319450 178.5022583  22.5550232  63.2170448 178.5693054  24.1341686
  63.9374733 177.8186188  24.4590855  63.7498360 179.2319489  23.4521713
  62.9478722 179.2218170  24.9647522  61.5684013 174.8369446  25.9968433
  62.1524353 175.0443420  27.0611076  60.5186081 173.9818420  25.9221687
  60.0192337 173.8908386  25.0489883  60.0572395 173.1869202  27.0531578
  59.9334869 173.8193665  27.9322395  58.6435585 172.6993866  26.7303486
  58.0676575 173.5985870  26.5115509  58.6698914 172.0888672  25.8277531
  57.9528465 171.9384308  27.8388557  58.5618324 171.7734222  28.9288559
  56.8804970 171.3757782  27.6035576  61.1624985 172.1060791  27.3462162
  61.7250290 171.9467621  28.4126740  61.6168594 171.4231415  26.2769718
  61.1524811 171.6720734  25.4152985  62.7686424 170.5245361  26.3046799
  62.4786682 169.7879639  27.0539932  62.9862022 169.7611389  24.9601879
  63.0820656 170.4682770  24.1362553  64.2013626 168.9054718  25.0367432
  64.1761169 168.1096954  25.7811966  64.4220963 168.3010864  24.1569176
  65.0341263 169.5611572  25.2910480  61.7182426 168.8855896  24.6646309
  61.7316818 167.9612122  25.2420979  60.8313179 169.4162903  25.0107765
  61.5226517 168.5301666  23.1751328  62.3009300 167.8261871  22.8805294
  60.4935722 168.2158203  23.0011177  61.6925735 169.4106750  22.5554962
  64.0611267 171.2190094  26.8544979  64.7203064 170.6813354  27.7510948
  64.5156631 172.3880768  26.3937321  64.0562439 172.7653198  25.5771999
  65.6531754 173.1632996  26.9418983  66.5411301 172.5315247  26.9195614
  65.9919052 174.4477081  26.1765556  65.1344528 175.1199951  26.1464939
  66.7679596 174.9748840  26.7314682  66.5112457 174.1383057  24.7145500
  67.5111923 173.7097473  24.7820034  65.7472229 173.4217224  24.4130745
  66.4925308 175.6380768  23.6006413  67.7617340 175.1360931  22.3481846
  67.3135071 174.8838043  21.3871765  68.4147644 175.9953308  22.1953354
  68.3733521 174.3217163  22.7364979  65.4547195 173.5771484  28.3971176
  66.4831772 173.7295227  29.1305294  64.2488327 173.8201141  28.8690090
  63.4126968 173.8473816  28.3031216  64.0819092 174.1274414  30.2956314
  64.8598175 174.8044434  30.6486721  62.6984558 174.6791229  30.5953445
  62.0875435 174.0875549  29.9134884  62.4596710 174.5000458  31.6436825
  62.5190392 176.1506653  30.2793159  63.4516487 176.9338989  30.3326435
  61.2989464 176.5340729  29.9508858  61.2602692 177.5020752  29.6652699
  60.5705833 175.8391113  29.8695354  64.3323059 172.8594818  31.1394978
  65.1266708 172.8186493  32.0711021  63.7130280 171.7282257  30.6964874
  63.0376434 171.8806915  29.9611588  63.5817261 170.3946381  31.4867249
  63.4989853 170.6253815  32.5488052  62.3148041 169.7547913  31.0654049
  62.2393951 169.8665009  29.9837704  62.3728676 168.6876526  31.2797165
  61.0620041 170.3479462  31.7449570  61.0663261 170.1567535  32.8180504
  61.0064278 171.4347839  31.6834202  59.8773384 169.7138672  31.0951290
  59.7409058 169.8696594  30.0249825  59.8054771 168.6269989  31.1356316
  58.6495323 170.3480072  31.7327576  58.4019127 169.9206848  32.7044411
  58.8083534 171.4116821  31.9101448  57.4730301 170.1516266  30.8887939
  57.4743118 169.2301636  30.4752674  56.6464806 170.3552551  31.4323444
  57.4532318 170.8633118  30.1724014  64.7329407 169.3847656  31.3415203
  64.7931213 168.4218903  32.1212311  65.5629120 169.5077515  30.3133373
  65.4248428 170.2133636  29.6040001  66.8331451 168.8083649  30.2031689
  66.7315826 167.7997894  30.6038780  67.2417984 168.7963867  28.6559334
  66.4211121 168.3392487  28.1031189  67.4874878 169.8174744  28.3642063
  68.7877426 167.9241791  28.4404736  69.1782379 168.3991852  27.2543983
  67.9399414 169.4022217  31.1685066  68.2381897 170.5905151  31.2363834
  68.6291275 168.5287781  31.9320583  68.3948669 167.5468597  31.8996239
  69.7484207 168.8348389  32.7693291  70.2637482 169.7610931  32.5151749
  69.4372177 169.0843506  34.2579994  70.4126358 169.2338104  34.7209511
  68.6524506 170.3724060  34.5879364  67.7887955 170.4604797  33.9288177
  68.4199371 170.4800415  35.6473961  69.3442078 171.1804962  34.3501129
  68.7601852 167.9533539  34.7789841  68.2868271 168.2004395  35.5767784
  70.8441086 167.7371368  32.6422043  71.8515015 167.9811096  32.0190964
  70.6324844 166.5160370  33.2274780  69.8111267 166.5189362  33.8152428
  71.4211121 165.3665771  33.1165504  72.4738464 165.6489716  33.1058960
  71.3025589 164.5466156  34.3889389  71.7467117 165.0943451  35.2200966
  70.2521744 164.4031982  34.6423759  72.0293121 163.2879333  34.3400688
  71.3694534 162.6604919  34.6442070  71.1872406 164.5114746  31.8107452
  70.1063309 164.4125214  31.2970695  72.1829758 163.7782135  31.3576508
  73.0527039 164.0712738  31.7793026  72.1276398 162.7341919  30.3003197
  71.1033249 162.3874207  30.1638279  72.7003250 163.2947693  28.9696426
  73.7581253 163.4555359  29.1777973  72.7539902 162.5419312  28.1832142
  72.0108414 164.5719452  28.4172077  71.7782593 165.3091736  29.1856575
  72.8695145 165.4286194  27.3898582  73.4363022 164.8565521  26.6552944
  72.2241516 166.1729126  26.9233437  73.7478638 165.8425751  27.8850956
  70.8078766 164.1621094  27.5674458  70.1870193 163.4182587  28.0667515
  70.1885529 165.0421753  27.3941326  71.1260223 163.7319946  26.6177673
  72.9899216 161.5256958  30.6458244  74.2054443 161.5112305  30.8206635
  72.1911240 160.4261627  30.9307957  71.1853790 160.5122833  30.9647560
  72.8586884 159.1846008  31.3579426  73.8581085 159.3758850  31.7486973
  71.9664078 158.6515198  32.5153465  70.9684601 158.3785858  32.1722488
  72.3719559 157.6763000  32.7847939  71.9685135 159.8460846  33.9200592
  71.2188492 158.9997253  34.6318016  72.9401398 158.0833740  30.2317028
  72.3812027 158.2991180  29.1247768  73.5513000 156.9496765  30.4999599
  73.9057159 156.8066864  31.4348640  73.5615158 155.7215881  29.6622410
  73.6867065 156.0532837  28.6315079  74.7088547 154.8019714  29.9363785
  75.6486511 155.3365326  29.7981396  74.6345215 154.5161743  30.9856129
  74.6755142 153.3180084  28.9418812  75.4269409 152.5584412  29.7439423
  72.1642151 155.0635529  29.7063847  71.6864471 154.8132477  30.8052197
  71.5584335 154.6696472  28.5651951  72.0807343 154.9236908  27.7389030
  70.2870255 154.0235443  28.4697227  69.5409317 154.6219025  28.9926090
  69.8939667 154.1196289  26.9912605  69.9719238 155.1404266  26.6170902
  70.6293716 153.5326691  26.4410267  68.4699707 153.6139221  26.6709843
  68.4841309 152.5726318  26.9928665  67.8084183 154.2326813  27.2772598
  68.1987991 153.5671539  25.1195755  69.0305252 153.0002747  24.7012749
  67.3021774 152.9494324  25.0686817  68.0069275 154.9549103  24.4545555
  67.2981186 155.5021973  25.0759830  68.9627686 155.4786224  24.4684486
  67.5034027 154.7629242  23.0297489  66.5343628 154.4799042  22.9987335
  67.4424515 155.5899048  22.4531384  68.1375351 154.1506042  22.5367661
  70.2622833 152.5791321  29.0284748  69.1987915 152.1254883  29.5343819
  71.3899078 151.8186646  28.9723606  72.1712418 152.1827393  28.4459801
  71.4481583 150.5176544  29.6478119  70.5475082 149.9985504  29.3199902
  72.5766830 149.6884766  29.1290073  72.4483871 149.5536499  28.0550156
  73.4740219 150.3029633  29.2017689  72.7587509 148.2707367  29.6729527
  73.1214371 148.4438477  30.6861629  71.8547134 147.6640778  29.6202412
  73.7576752 147.3935547  28.8547401  74.2097397 147.7198181  27.7646236
  74.0908203 146.2328644  29.3957539  74.8330383 145.6809082  28.9900894
  73.7364807 146.0013275  30.3127785  71.3317795 150.6031799  31.1214581
  70.6302109 149.8366394  31.7823582  71.9911728 151.5942841  31.7436981
  72.6418686 152.1768341  31.2364254  71.8982239 151.8767242  33.2173271
  71.9553604 150.9088898  33.7154427  73.1222687 152.7581177  33.5230598
  73.1349564 153.6935883  32.9637375  73.1411057 152.9429321  34.5971184
  74.6536407 151.9622803  32.9831696  74.7345428 151.0985870  33.9992256
  70.5974731 152.5727081  33.6790886  70.1290817 152.4577637  34.8209610
  70.1466522 153.3811646  32.7334747  70.5670395 153.3410339  31.8159924
  69.2398834 154.5340576  33.0031509  69.2271881 155.0767975  32.0579720
  67.8211060 153.9390106  33.3060455  67.8470230 153.4924011  34.3000107
  67.0983734 154.7538757  33.2643127  67.3485794 152.9015961  32.2802582
  67.6786346 153.2301331  31.2947502  67.9200058 151.9822845  32.4084206
  65.8797836 152.5110779  32.3499184  65.0619965 153.0287018  33.0443268
  65.5518951 151.4786987  31.5311089  64.5831909 151.2011108  31.4627800
  66.2119522 151.0521698  30.8966866  69.6650772 155.5884857  34.0149994
  69.4113998 156.7469025  33.6744843  70.5033264 155.3481140  34.9891472
  70.6448517 154.3772278  35.2288589  70.8472672 156.3506317  36.0373840
  70.3376083 157.2664032  35.7378502  70.4003525 155.9179688  37.4501534
  70.5595169 156.7104034  38.1814651  69.3301010 155.7164764  37.4047203
  71.0946198 154.6231537  38.0141258  71.7718353 153.9537048  37.2389908
  70.8961487 154.3039246  39.2135544  72.2852631 156.8524170  36.1935883
  72.5204468 157.8051147  36.9218063  73.2806778 156.1932220  35.5886841
  73.0371857 155.4783630  34.9180260  74.7235565 156.6292877  35.6096458
  74.9669571 156.7819824  36.6610985  75.5870667 155.4638214  35.1407089
  75.3345261 155.2012024  34.1133995  77.0377808 155.8142090  35.2708931
  77.3533096 155.7906799  36.3139572  77.6435013 155.0197144  34.8350220
  77.3420181 156.7380219  34.7788544  75.4382095 154.2958679  35.9350624
  75.3142242 154.5729065  36.8458214  74.8657532 157.8618011  34.7280655
  74.7294083 157.7531738  33.4915771  75.1943741 159.0019684  35.3310242
  75.1553421 159.0066376  36.3402596  75.4750443 160.2484283  34.6321144
  74.6548538 160.4909363  33.9564095  75.5700455 161.3885498  35.6675491
  74.6242828 161.3475952  36.2078857  76.3460159 161.2061768  36.4109879
  75.7825165 162.7298584  34.8772545  76.6706238 162.4970703  34.2897415
  75.0358276 162.9361267  34.1104355  76.0268784 163.9253082  35.8320312
  75.8170471 163.8066864  37.0578995  76.4597931 165.0012970  35.3398857
  76.6898727 160.0465851  33.7273178  77.7351837 159.6931763  34.1719170
  76.5665131 160.4225159  32.4321709  75.6806107 160.7742310  32.0981636
  77.6996994 160.5752716  31.5312862  78.6042404 160.2133942  32.0200920
  77.5312576 159.7341614  30.2503185  76.4840393 159.6555328  29.9583244
  78.3540039 160.3148651  29.0766411  79.3990326 160.4160004  29.3695278
  78.4316864 159.6591797  28.2093735  77.9160538 161.2530365  28.7358704
  77.9451294 158.2389221  30.3515167  77.8022766 157.8215027  29.3547955
  79.0232391 158.1523438  30.4867573  77.2599258 157.3991241  31.3943729
  76.1804199 157.3516388  31.2511597  77.7901611 156.4485931  31.4531784
  77.3395920 157.8584290  32.3796616  77.9653625 162.0588989  31.3469181
  79.1154327 162.5009155  31.4785748  76.9955444 162.8355865  30.9438915
  76.0480270 162.5177307  30.7980175  77.1991959 164.2519379  30.7156773
  78.0159912 164.5875702  31.3546638  77.6181107 164.4708099  29.2489929
  78.3932419 163.7624817  28.9564953  76.3967361 164.3229523  28.2936573
  75.5587921 164.9796295  28.5276089  76.6359253 164.5128937  27.2473240
  75.9816818 163.3158112  28.3322124  78.1419525 165.7993164  29.0339985
  79.0850830 165.7498322  29.2062168  76.0487213 165.1696625  31.0765934
  74.8945312 164.7441864  31.2723808  76.2939911 166.4635773  31.2732124
  77.1722260 166.8494415  30.9571266  75.3638687 167.5268707  31.8386974
  74.3788147 167.0770416  31.9628906  75.8863831 167.9718018  33.1445656
  75.9510117 167.0811310  33.7695847  77.2103577 168.7367096  33.1392517
  77.1213913 169.7096405  32.6559525  77.6572952 168.9106750  34.1180687
  77.9617844 168.1531830  32.6073227  74.9167709 168.8177185  33.7748489
  74.4675140 168.3544312  34.4855881  75.2139587 168.7010040  30.8235092
  76.1008759 168.8530579  29.9625912  74.1313400 169.4798584  30.9366474
  73.4978027 169.2247467  31.6807194  73.6924820 170.4408875  29.9741764
  73.4963150 169.9661407  29.0128040  72.3340454 170.9518585  30.4212322
  71.6290512 170.1942749  30.0789337  72.3124695 171.0045166  31.5097466
  72.0282135 172.3176880  29.7870712  72.7867508 173.0305939  30.1103191
  72.0853806 172.2070465  28.7042084  70.6173325 172.9035797  30.1109409
  69.9060440 172.2126007  29.6584892  70.5358887 172.8675537  31.1972961
  70.3557053 174.3386841  29.6070271  71.1501007 174.9825745  29.9844646
  70.2765045 174.3650513  28.5202274  69.0387268 174.8512268  30.1623573
  68.8593140 174.6192474  31.1288433  68.9730835 175.8432770  29.9844551
  68.2151184 174.4509583  29.7362804  74.8038864 171.5225525  29.7617607
  75.0326157 171.9388580  28.6260719  75.5029907 171.9445343  30.8460903
  75.1862946 171.6324768  31.7529659  76.4608765 173.0585327  30.7548523
  76.0108109 173.9517212  30.3215427  76.9247589 173.4372559  32.1508141
  77.5334091 172.7091064  32.6869621  77.4791794 174.3753052  32.1230049
  75.8024368 173.8484650  33.1780281  74.9050598 174.6318970  32.8743668
  75.7857971 173.2981415  34.3165245  75.0245438 173.4132996  34.9702301
  76.5253677 172.6947784  34.6468277  77.6516418 172.6834564  29.8806534
  78.2927246 173.5587006  29.3007374  77.9321060 171.3684998  29.8002567
  77.3891373 170.7031555  30.3318367  79.0785980 170.8307648  28.9990387
  79.9504929 171.4794312  29.0835056  79.5589447 169.4176025  29.4271145
  78.8399887 168.6311646  29.1974983  80.4633102 169.1536102  28.8789101
  79.9346695 169.3364258  30.8678188  79.0416946 169.5044098  31.4698772
  80.2555618 168.3136749  31.0655994  81.1032028 170.2734528  31.2726879
  81.8242874 170.8407593  30.4493828  81.3560562 170.3072510  32.5289078
  78.8739471 170.8271027  27.4729977  79.7600708 170.5252533  26.6725903
  77.6250687 170.9883881  27.0616093  76.9437637 171.2139282  27.7722759
  77.1413269 170.9645081  25.6674252  77.5208893 170.0531006  25.2054939
  75.5694962 170.8159332  25.5591545  75.1133041 171.6297455  26.1228065
  75.2209702 171.0331879  24.1115742  75.8884354 170.4505768  23.4766273
  74.1959000 170.7692261  23.8514881  75.3459549 172.0890503  23.8714485
  74.9928360 169.4849091  26.0986099  75.4553299 168.5921936  25.6775608
  75.2380829 169.5149078  27.1602383  73.5063629 169.4787292  25.9277306
  73.1683960 169.4208221  24.8930664  73.0866165 168.6392365  26.4819489
  73.1237717 170.3827667  26.4014874  77.7111588 172.1726532  24.8972263
  77.6202240 173.3186646  25.3820896  78.2996826 171.8896332  23.7510052
  78.1805267 170.9482422  23.4050579  78.9212112 172.8656158  22.8972473
  78.3708572 173.8026733  22.9817524  80.2888336 173.1340790  23.3763905
  80.5826874 174.1829834  23.4155407  80.3584518 172.8296509  24.4207001
  81.4286270 172.4304657  22.7503796  81.8827133 171.1833344  23.2874603
  81.3562393 170.7877960  24.1434822  82.8827362 170.5102692  22.6319351
  83.2135391 169.5693665  23.0462456  83.5658875 171.0315094  21.5248547
  84.4000015 170.5606232  21.0259285  83.1594315 172.2395477  20.9855614
  83.8323441 172.7565765  20.3175240  82.0836258 172.9592133  21.5824718
  81.8810272 173.9639435  21.2421017  78.8587723 172.3993683  21.4325409
  78.7403183 171.2028198  21.1005554  78.7879028 173.4481659  20.5786057
  78.7825241 174.3684387  20.9947147  78.5825577 173.2768860  19.1566753
  78.1530457 172.3129730  18.8837318  77.5588837 174.3443909  18.6805458
  78.0016174 175.3345337  18.7886581  77.3175201 174.1798248  17.6304150
  76.4013824 174.3267670  19.4718895  75.9396286 175.1557159  19.3261604
  79.8911896 173.3373260  18.3952923  80.3610992 174.3891449  17.9693623
  80.5455475 172.1476593  18.2601738  80.0648956 171.3722076  18.6934700
  81.8158035 172.0177917  17.5355568  82.4453278 172.8235626  17.9131241
  82.4137039 170.6665192  17.9595051  82.4778290 170.5706177  19.0433826
  81.7212372 169.9523621  17.5138779  83.7813339 170.3532562  17.3174152
  83.7005234 170.2677307  16.2337856  84.8718643 171.4369659  17.5945187
  85.1130676 171.5880432  18.6467075  85.7658997 171.0975037  17.0714989
  84.6023178 172.3797607  17.1184883  84.3183975 168.9939880  17.8061714
  83.5482559 168.2318420  17.6873627  85.2580948 168.7222443  17.3253002
  84.4412537 169.0072327  18.8891487  81.6061249 172.2294312  16.0426884
  82.5436935 172.6295166  15.3430557  80.3293915 172.1941986  15.5925789
  79.6088181 172.0447845  16.2843513  79.9913330 172.2687073  14.1730757
  80.8437805 172.3308411  13.4966288  79.2575226 170.9377899  13.8077297
  79.8318253 170.0520020  14.0791149  78.3167267 170.8486786  14.3509302
  79.0113373 170.8834991  12.4343548  78.8329926 169.9936371  12.1213751
  79.1123123 173.4872589  13.9042740  78.2157974 173.8053436  14.6908169
  79.1973572 173.9873657  12.6962223  79.9830933 173.7956390  12.0912714
  78.0998993 174.7045288  12.0898991  77.8253937 175.5723419  12.6896152
  78.5832138 175.3565521  10.7317495  78.7582779 174.5665894  10.0014191
  77.7043686 175.8104858  10.2738419  79.6850204 176.3752441  10.8825083
  80.5262299 175.8982391  11.3854303  80.0984039 176.8258209   9.4473982
  79.2417450 177.3107147   8.9792919  80.8833923 177.5656891   9.6039400
  80.4556503 175.9797974   8.8602829  79.2719650 177.6453552  11.5940189
  79.1503143 177.3947144  12.6478128  80.1542358 178.2854004  11.6006699
  78.3607178 178.0335083  11.1389647  76.7600098 173.9837341  11.9375067
  75.7776871 174.5592346  11.5140858  76.6073074 172.7228241  12.3113394
  77.4586639 172.2518311  12.5823841  75.2771835 172.0941467  12.4669704
  74.5363312 172.6664734  11.9086847  75.1900635 170.6707153  11.9046621
  75.9699249 170.0218353  12.3032427  74.2842636 170.2104950  12.2994127
  75.0467987 170.6557465  10.0966349  74.7593689 169.3552704   9.9915628
  74.7158127 172.1915436  13.9199533  73.5456085 171.8449554  14.1932106
  75.4277420 172.7647858  14.8902102  76.3534775 173.1223602  14.7024422
  75.0279160 172.9253998  16.2834759  75.3563614 173.9017487  16.6397858
  73.9462433 172.8638458  16.4030781  75.6867981 171.8635101  17.2097721
  76.6838608 171.2874908  16.8103065  75.2072449 171.6233978  18.4192505
  73.8301620 172.0926208  18.9426498  73.0739365 172.1415863  18.1591797
  73.8451843 173.1484222  19.2131367  73.5128708 171.2158051  20.0988274
  73.0415421 170.3186798  19.6974220  72.8749390 171.6633301  20.8609734
  74.8696823 170.8495483  20.6229706  74.7704620 169.9362183  21.2095642
  75.2742920 171.7122040  21.1523228  75.7374802 170.6984863  19.4003716
  76.7567062 170.9582214  19.6864033  75.9096985 169.2506256  18.8946419
  76.6326370 168.4272308  19.4786720  75.2225647 168.8307495  17.8591709
  74.6112061 169.5328674  17.4675541  74.9605331 167.4810638  17.4031620
  75.8294907 166.8536072  17.6014252  73.7657089 166.9157715  18.1480465
  73.9438477 167.0580902  19.2139320  72.8864670 167.4489594  17.7864571
  73.5628967 165.4022369  18.0535507  73.4641342 164.9466705  17.0682526
  74.3756561 164.9304962  18.6058216  72.1099396 164.9650726  18.8682480
  70.8416824 165.2822571  17.6366272  70.9662170 164.5407257  16.8474884
  69.8370285 165.1622620  18.0420418  70.9799118 166.3052521  17.2867012
  74.7074585 167.4905243  15.9198370  74.3197403 168.4903564  15.2353058
  75.0560989 166.4080963  15.2969103  75.6622467 165.7316437  15.7385998
  74.9801483 166.2337036  13.7974386  74.0360107 166.6242523  13.4177265
  76.0829163 167.0409546  13.1170692  77.0661850 166.6824646  13.4216585
  76.1459579 166.8889313  12.0395651  76.0118103 168.0771027  13.4478788
  75.0220642 164.7146301  13.4873123  74.9182968 163.8536530  14.3771486
  75.0866394 164.3129883  12.2163897  75.1362762 164.9991455  11.4769106
  75.0448303 162.9041138  11.7784100  75.0044403 162.2576752  12.6550932
  73.6515579 162.6699219  11.0738230  73.6467590 163.2343903  10.1413765
  73.4614563 161.6193542  10.8541698  72.8138428 163.0015106  11.6873322
  76.1962738 162.6306152  10.8187256  76.4845963 163.4586792   9.9638929
  76.8505096 161.4935913  10.9894190  76.6693573 160.9594116  11.8272448
  78.0478745 161.0028381  10.3176670  78.1388779 161.5717926   9.3924007
  79.3231659 161.3656464  11.1489773  79.3776855 160.6555023  11.9740953
  80.1682510 161.2201385  10.4761086  79.3758011 162.7838135  11.7247705
  79.4328308 163.9378204  10.8834963  79.5491486 163.8220520   9.8160372
  79.5395508 165.2259216  11.3918705  79.6428299 166.0731659  10.7301359
  79.5022888 165.4608917  12.7432690  79.6459961 166.7453918  13.2181816
  80.1045837 167.2591095  12.5493069  79.1926880 164.3434448  13.6314878
  79.0884247 164.5026245  14.6945915  79.1506119 163.0298767  13.1150665
  78.8817825 162.2353516  13.7954111  77.9815369 159.4649811  10.1062288
  77.0702744 158.8017120  10.5948372  78.9273987 158.8547974   9.3309374
  79.6991730 159.4114227   8.9923649  79.0322723 157.3937683   9.1419277
  78.4402390 156.8029785   9.8409081  78.5370636 156.9390411   7.7537379
  78.8022308 155.8959503   7.5812440  77.0215683 157.0002747   7.6041918
  76.6791916 158.0247650   7.4583087  76.6202469 156.3653564   6.8143063
  76.5319443 156.6732635   8.5214901  79.1093369 157.7828674   6.5854940
  80.1683350 157.5373840   6.5056729  78.6016235 157.4545135   5.6785703
  78.8521500 158.8161926   6.8183069  80.4032669 156.7516632   9.3236074
  81.4271393 157.3466949   9.0013561  80.4876480 155.5169373   9.8444204
  79.6479721 155.1626892  10.2797995  81.7345581 154.6926575   9.8708038
  82.5136108 155.4009247  10.1527977  81.7020187 153.6954803  10.9906216
  82.7155914 153.3363495  11.1689482  81.2832336 154.1554871  11.8856754
  80.7913818 152.4581604  10.6607914  80.1996613 152.4092102   9.5470343
  80.7464294 151.4546204  11.4927206  80.2035370 150.6224670  11.3114157
  81.2399597 151.5440216  12.3693848  82.0531540 154.1546326   8.4718475
  81.1354828 154.2311401   7.5894952  83.1904907 153.3976593   8.2551479
  84.3965149 153.3538208   9.0759964  84.4838181 152.4637146   9.6990452
  84.5912857 154.2639618   9.6432877  85.5396347 153.0710754   8.1350842
  86.4230118 152.5971222   8.5630236  85.9198685 153.9715271   7.6526990
  84.8971405 152.1020508   7.1044369  84.9510574 151.0883484   7.5014362
  85.3459320 152.0568085   6.1121407  83.4965515 152.6924744   6.9935551
  83.4745102 153.4700165   6.2299824  82.4291000 151.6886597   6.6031823
  82.1712952 151.4445190   5.4069695  81.8538971 150.9698029   7.4997649
  82.2688828 151.0225677   8.4190607  80.7325668 150.0306854   7.2728958
  80.9629898 149.5412598   6.3266006  80.7237320 148.9007416   8.3459120
  80.2436142 149.3560791   9.2120810  80.2206497 148.0196075   7.9476371
  82.1513138 148.4534149   8.7688828  83.0589371 149.1359253   9.5960474
  84.1393661 148.3760986   9.5763950  85.0418777 148.5253906  10.1504898
  83.9880371 147.3185425   8.7357759  84.7298126 146.6483612   8.5918007
  82.7378922 147.3690796   8.2156105  82.2893753 146.7221069   7.4762502
  79.3224258 150.6549683   7.0927467  78.3019485 150.0019531   7.2624555
  79.2373505 151.9207458   6.7462845  80.0877457 152.4656525   6.7441926
  77.9825211 152.6471100   6.4907770  78.2262878 153.5899506   6.0011473
  77.4131699 152.0835266   5.7516398  76.9342728 152.9114532   7.6173153
  75.9983902 153.6362610   7.3694782  77.1413269 152.4540710   8.8687029
  78.0813675 152.1602325   9.0925322  76.2135315 152.6530304   9.9712515
  75.1959534 152.3805695   9.6912432  76.6356277 151.8040009  11.1814384
  76.7977448 150.7863922  10.8260679  77.5993042 152.1617584  11.5439672
  75.5946045 151.8311920  12.3224173  74.5195465 150.9749756  12.2985334
  74.5100632 150.1445465  11.6080914  73.4491196 151.0128021  13.2053900
  72.6321869 150.3065338  13.1903982  73.4866867 152.0393066  14.1820612
  72.5345001 152.0365143  15.1490612  71.9975357 151.2434540  15.2146730
  74.5793762 152.9219666  14.1855621  74.7395096 153.6193695  14.9944944
  75.6175842 152.8300018  13.2495489  76.3732224 153.6007996  13.2135267
  76.2149124 154.0874329  10.4469786  77.3131104 154.7275696  10.5086384
  75.0483475 154.7085419  10.7371864  74.2277603 154.1211243  10.7782469
  74.8904877 156.1819611  10.9706182  75.7609482 156.6396484  10.5005846
  73.6806107 156.7959747  10.2025452  72.7900620 156.4422913  10.7221003
  73.8570786 158.3311157  10.2832813  74.7259827 158.5607300   9.6665230
  72.9712906 158.8845215   9.9714670  74.0177231 158.5366974  11.3415966
  73.5772018 156.3426819   8.7693977  74.1834259 156.9519653   8.0990400
  73.9043961 155.3170624   8.5987206  72.1225433 156.2813721   8.2654095
  71.7287903 157.2767334   8.4711018  72.1353531 155.9201965   7.2370648
  71.5166931 155.5490723   8.7990694  74.8533630 156.5034180  12.4606724
  73.9243927 156.1318359  13.1688948  75.9980698 157.0748444  12.9743814
  76.6795120 157.2971344  12.2628145  76.2181320 157.5056152  14.3478718
  75.5678024 156.9867096  15.0520840  77.6672287 157.1364746  14.6967726
  78.3707428 157.7146301  14.0977011  77.8696976 157.4326782  15.7260265
  77.8981857 155.6537781  14.6787977  77.7023926 154.7890015  15.7961521
  78.1980515 153.6016846  15.4286165  78.1606293 152.6412964  15.9212132
  78.8271255 153.7178497  14.2318869  79.3826218 152.9987946  13.7908754
  78.6443787 154.9779205  13.7450466  78.9530106 155.3571777  12.7820797
  75.9598541 158.9927368  14.3701468  76.7283783 159.7826996  13.8205099
  74.8136063 159.3905334  14.9150066  74.0946808 158.7386932  15.1949043
  74.5102386 160.7121124  15.3807507  74.8072128 161.4278717  14.6142101
  72.9812851 160.9087677  15.5326405  72.5498734 160.1165466  16.1445084
  72.9189758 161.8105011  16.1418037  72.2377625 161.0610352  14.1531630
  72.7244263 161.8008881  13.5176439  72.2200012 160.0796814  13.6791029
  70.7580948 161.3705292  14.4172401  70.2300949 161.0309143  15.4852762
  70.0616837 161.9750366  13.5860987  75.1860657 161.0287781  16.7316036
  74.7866058 160.5460205  17.7874641  76.2371750 161.8182678  16.6991882
  76.4847488 162.1965942  15.7960434  77.1021194 162.0773010  17.8815861
  76.7286682 161.4458008  18.6877155  78.6053009 161.7526398  17.7390022
  79.1518402 162.2001343  18.5691547  78.8045425 160.2485352  17.6169109
  78.3533249 159.8279419  16.7182350  79.8739166 160.0833282  17.4855614
  78.4417877 159.6395416  18.4449463  79.0927124 162.3392944  16.5961952
  79.7851562 162.9372406  16.8870163  76.9069824 163.4761200  18.3856754
  76.7144394 164.3320923  17.5390091  76.8248978 163.6525116  19.7239647
  76.7956543 162.8764801  20.3697319  76.7885666 164.9375153  20.3848820
  76.4739151 165.7657166  19.7499142  75.8047485 164.7678833  21.5733662
  74.8117752 164.7855988  21.1241646  76.0883255 163.7973328  21.9804516
  75.8337784 165.7154541  22.7694187  76.8865128 165.8291321  23.0281181
  75.2580109 167.0690765  22.3412228  74.2191772 166.9484253  22.0340290
  75.3606949 167.7764740  23.1641121  75.6554947 167.5584106  21.4520397
  75.0458298 165.2112579  24.0212688  75.5194702 164.2705231  24.3019886
  75.1053543 165.9160919  24.8505802  74.0266495 165.0056610  23.6940002
  78.1909561 165.2349548  20.9571514  78.9324722 164.4042206  21.4656315
  78.5858917 166.5259552  20.8050041  77.9583282 167.2556915  20.4988155
  79.8837891 167.0057983  21.3246250  80.4193115 166.0601501  21.4087391
  80.6702576 167.7375183  20.1832027  81.6513824 168.0066223  20.5744324
  80.9373932 166.7520752  18.9945526  80.0002518 166.4448853  18.5303364
  81.5797501 167.3273926  18.3278561  81.5008698 165.9352417  19.4455109
  80.0217209 168.8492889  19.6693993  79.0647430 168.7733002  19.6743450
  79.9023514 167.7782898  22.6975288  79.0647049 168.6268768  22.9322662
  80.8541718 167.4443207  23.5251198  81.5224380 166.7226868  23.2954082
  80.8991623 167.9347229  24.9579391  80.5569458 168.9684296  25.0072956
  79.9985733 167.0539703  25.9388371  80.2502365 167.3919373  26.9440918
  78.4565659 167.1534729  25.7704048  78.2228775 166.7968140  24.7672653
  77.9071350 166.5325470  26.4779892  78.2167053 168.2102203  25.8880920
  80.2403259 165.5373077  25.9058552  81.2991638 165.2789917  25.9209805
  79.8392334 165.0761414  26.8083858  79.7346649 165.0194702  25.0908337
  82.3395157 167.9141998  25.5288639  83.1309891 167.0505676  25.1568661
  82.6786575 168.9268951  26.2835102  81.9930267 169.5460205  26.6917839
  84.1063156 169.1158447  26.7606506  84.7501450 169.0403595  25.8843517
  84.1928406 170.4734497  27.4815216  83.4447021 170.6289825  28.2588272
  85.1637192 170.5483093  27.9713116  84.0772629 171.6681061  26.5325451
  85.2613525 172.1231689  25.9351406  86.1554871 171.5340576  26.0761032
  85.2267303 173.2507782  25.0339470  86.0757751 173.5237427  24.4248409
  83.9873657 173.9282990  24.9389744  83.8454285 175.0317535  24.1685600
  84.4639740 175.1372681  23.4420109  82.8395081 173.4854279  25.6044044
  81.9875412 174.1114960  25.3839607  82.8429260 172.3416748  26.3970089
  82.0222473 171.9662933  26.9902916  84.5426788 168.0259247  27.7489986
  85.6290283 167.4278870  27.6286430  83.7324295 167.7723694  28.7567291
  82.9093857 168.3526001  28.8343506  83.9772491 166.8561554  29.8398323
  84.9613190 166.4125061  29.6885300  84.1636047 167.8051605  31.0310402
  84.8554764 168.5712433  30.6810093  83.2198181 168.2807617  31.2978497
  84.7725449 167.2152557  32.3384323  84.1373215 166.3727264  32.6118126
  85.7570877 166.8993683  31.9934826  84.9477234 168.2807465  33.4748421
  85.6765442 169.0133209  33.1280708  84.0227814 168.8476715  33.5804901
  85.3115616 167.5635376  34.8417549  85.2246170 168.2830353  35.6559258
  84.4627838 166.8800354  34.8639832  86.6714249 167.0393677  34.9569130
  87.2852936 167.7091064  34.5156441  86.9310532 166.9876099  35.9316025
  86.7799072 166.1804810  34.4366913  82.8733749 165.8224182  30.0023632
  81.6982422 166.1463623  29.8575134  83.2882462 164.6129913  30.2772007
  84.2829361 164.5738983  30.4479675  82.4654007 163.4378204  30.5856152
  81.4707260 163.8001556  30.8452988  82.2291336 162.6831207  29.2240696
  83.1380463 162.4474182  28.6705151  81.5160599 161.8712769  29.3672981
  81.7196426 163.4244232  28.6084366  82.9681625 162.5634918  31.7268028
  84.1562042 162.4647369  32.0334129  81.9602814 161.9935303  32.4758301
  80.9981384 162.0365295  32.1716576  82.1984634 161.5560608  33.8684311
  83.1354141 161.9846039  34.2242279  81.1074524 162.1760406  34.7213821
  80.1434860 161.7521362  34.4400101  81.2307510 162.0794525  35.8000679
  81.0910110 164.0063629  34.4882812  80.8464661 163.9261627  33.1773033
  82.3380814 160.0574646  34.0391884  83.4506531 159.6548767  34.4152527
  81.3286133 159.2429352  33.7724495  80.5027161 159.6462250  33.3536987
  81.3075256 157.8374176  34.0241547  82.1156616 157.6533203  34.7320480
  80.0140686 157.4236908  34.7235451  79.1455002 157.6942444  34.1231346
  80.0944214 156.3533020  34.9129944  80.0009613 157.9309998  36.1273918
  80.7064590 157.5364838  37.0358887  79.0858459 158.8345947  36.3844299
  78.9884949 159.1315308  37.3448753  78.4986572 159.2668457  35.6855316
  81.4536209 157.0835876  32.6945763  80.6063309 156.2429810  32.2389374
  82.6468582 157.2177429  32.0887413  83.3200531 157.8271332  32.5309486
  83.0797882 156.5547638  30.8567104  82.3394775 155.8102875  30.5638046
  83.1420975 157.5799866  29.6619434  83.9219513 158.2926025  29.9305115
  83.4046936 157.0971527  28.7206593  81.8373566 158.2602539  29.3217106
  81.4201279 158.7047729  30.2252712  82.1509171 159.3279266  28.3551731
  82.5314865 158.8357239  27.4601784  81.2282639 159.8135834  28.0374565
  82.9490662 159.9974365  28.6758099  80.8309784 157.2537231  28.6561489
  80.5158463 156.4875183  29.3644733  79.9317932 157.7635956  28.3103218
  81.2139816 156.8529053  27.7176628  84.4054794 155.9562378  31.0454445
  85.2648849 156.5326538  31.7362328  84.6738281 154.7616119  30.4722004
  83.9309082 154.4321442  29.8725224  86.0575409 154.1677551  30.3390942
  86.7919312 154.7088928  30.9356976  86.0312958 152.7324524  30.8426590
  85.3338394 152.1743011  30.2180729  87.0127182 152.2818756  30.6946964
  85.6461639 152.5702057  32.3041916  85.2982101 153.4748993  33.0887108
  85.7824020 151.3180542  32.8141823  85.6642380 151.1939392  33.8095360
  86.1799622 150.6219940  32.1997337  86.5406265 154.2902374  28.8458157
  85.7336807 154.1338959  27.8937130  87.8105545 154.4463959  28.7091465
  88.3785629 154.3592072  29.5397243  88.5221024 154.2549591  27.4528866
  87.9071274 154.6108093  26.6262836  89.8188858 155.0397797  27.4508572
  90.4845810 154.5219727  28.1413918  90.3455124 154.9947510  26.4975739
  89.7133102 156.5076447  27.8953876  89.5051346 156.5768280  28.9630871
  91.0005951 157.1759338  27.5451984  91.2665100 157.2844391  26.4937115
  91.1035233 158.1857758  27.9423561  91.8544769 156.7100372  28.0370560
  88.6283112 157.1732025  27.0254974  87.6312408 156.7523346  27.1552200
  88.4189835 158.1829529  27.3786144  88.8991013 157.2592468  25.9731808
  88.8743668 152.8102264  27.0865231  89.3114014 151.9752197  27.9062099
  88.7915726 152.4796143  25.8230019  88.3597107 153.1651611  25.2200012
  89.4320145 151.2885590  25.2118664  90.2268600 150.9021301  25.8498173
  88.4733353 150.1029358  25.1167107  88.9690933 149.2542267  24.6455402
  88.2034302 149.8290558  26.1366367  87.3261719 150.5003357  24.3804970
  86.6065979 149.8850403  24.5393314  90.0653229 151.6730957  23.8799038
  90.1131210 152.8277283  23.5621681  90.5922165 150.7040253  23.0901623
  90.5965424 149.7446442  23.4058704  91.2594833 150.9403229  21.8941383
  91.5336609 149.9805298  21.4562759  90.5894318 151.3648529  21.1465282
  92.5103302 151.8654175  22.0788784  93.0493774 152.0062408  23.1899662
  92.9864731 152.3112640  20.9288063  92.4522781 152.0595856  20.1094170
  94.0006485 153.3934021  20.9393520  93.9642258 153.8470306  21.9298153
  95.4095535 152.8068695  20.5713234  95.3277664 152.2581940  19.6330490
  96.2415009 153.4842072  20.3785000  95.9284134 151.7552032  21.6009369
  95.1632233 150.9980927  21.7723808  96.7249985 151.1860809  21.1217098
  96.4323654 152.2964020  22.8265553  97.2138367 153.0292664  22.6257668
  95.6027985 152.7141113  23.3970242  96.9876938 151.2448273  23.7092934
  97.9772263 151.0617218  23.6232090  96.3238754 150.4641266  24.5681171
  95.0747070 150.7140198  24.9823399  94.6916046 151.5389252  24.5431957
  94.4741821 150.1159210  25.5316563  96.9195709 149.4302521  25.1002502
  97.8781357 149.1696320  24.9176693  96.5033951 148.9437866  25.8814411
  93.6264801 154.5421295  19.9404240  92.8283768 154.2739105  19.0583858
  94.1591415 155.7853394  20.1685486  95.0538635 156.1832581  21.2827263
  96.1228714 156.0659637  21.1050549  94.7188110 155.6223450  22.1552124
  94.8124619 157.6562195  21.4691334  95.6800003 158.2386322  21.7793999
  94.0185776 157.7904510  22.2038727  94.3978043 158.1007843  20.0632629
  95.2364197 158.4429321  19.4568405  93.8024979 159.0065613  20.1784267
  93.7226257 156.8762970  19.3828259  92.6420441 156.9998474  19.3108501
  94.0911636 156.6624603  17.8847466  95.2745972 156.4477081  17.4774704
  93.1344070 156.7706146  16.9850426  92.1758881 156.7110901  17.2977562
  93.3297958 156.8095245  15.5243206  94.3794479 157.0228424  15.3222742
  92.9780121 155.4264069  15.0246058  93.4809494 154.6820831  15.6419678
  91.8966141 155.3379517  15.1288414  93.3396759 155.2707062  13.6589737
  93.1516571 154.3653412  13.4009724  92.5190353 157.8732300  14.7741003
  91.4807739 158.3027191  15.1971931  93.0292282 158.2674866  13.6070919
  93.9748230 158.0088806  13.3640375  92.4343872 159.2473755  12.7531366
  91.7692108 159.8679047  13.3536282  93.4992294 160.1637726  12.1130877
  93.1127548 160.8689880  11.3772840  94.2193451 161.0113373  13.1632328
  94.8662109 160.3834839  13.7759867  94.8642044 161.7201996  12.6438265
  93.5948105 161.6947632  13.7385492  94.5060577 159.3315430  11.4752102
  95.1064758 159.9837952  11.1068754  91.6988678 158.5797882  11.5394821
  90.9711761 159.3026581  10.8568888  91.7859726 157.2598724  11.3643970
  92.2189484 156.6623230  12.0540066  91.1379776 156.6447296  10.1729784
  91.5859756 157.1134186   9.2967739  91.2818527 155.1258240  10.1374655
  90.7345734 154.6948853  10.9758472  90.8344040 154.7145538   9.2326126
  92.7307434 154.6454163  10.1898880  93.2506866 155.1055298  11.0301609
  92.7373276 153.6161194  10.5485153  93.4933319 154.6806335   8.8569517
  93.2143936 155.5091553   7.9696026  94.5121307 153.9621124   8.6813726
  89.6320496 156.9154053  10.0902224  88.8624115 156.5745087  10.9993420
  89.2897949 157.6584473   8.9596386  90.0239410 157.8599548   8.2959166
  87.9480667 158.0812225   8.6232843  87.9529190 158.6022339   7.6658764
  87.1658630 156.7408905   8.4395094  87.8274155 155.9084015   8.1998692
  86.7687073 156.3537445   9.3778543  86.0894623 156.7326050   7.4343023
  84.7220993 156.5171509   7.8411903  83.9571686 156.3286438   6.7441125
  82.9140396 156.0488434   6.7415414  84.8307953 156.3582916   5.6643515
  84.4888840 156.1947632   4.7281594  86.1388626 156.6000214   6.0378842
  87.0129089 156.4967804   5.4119534  87.3600540 159.0516205   9.7114458
  86.1256027 159.1474915   9.8313847  88.1875000 159.6726685  10.6278210
  89.1402130 159.3410187  10.6772280  87.6986389 160.5801239  11.6893320
  87.1289902 160.0389709  12.4448137  88.8463821 161.2646484  12.4570951
  89.4480667 160.5725708  13.0462360  89.5090408 161.8320465  11.8035975
  88.2998962 162.3239136  13.2624350  88.9665909 162.7626495  13.7959356
  86.8849640 161.7981873  11.1408119  87.2973251 162.5822906  10.2893553
  85.7137604 161.9640503  11.6937895  85.6221161 161.4723053  12.5712223
  84.6803284 162.9793243  11.4114838  84.4549026 162.9851990  10.3450642
  83.4017792 162.5395966  12.1020412  83.5334167 162.5775757  13.1833963
  82.6689835 163.3164825  11.8840141  82.7991486 161.1514893  11.7828426
  82.9298782 160.4088898  10.6685123  83.4027481 160.6701202   9.7333374
  82.4176636 159.1411133  10.8668079  82.4331436 158.4308472  10.1488934
  81.9064713 158.9904327  12.1353111  81.4271622 157.8976593  12.8148584
  81.3346863 156.9043274  12.4011421  81.0896149 158.0706635  14.1868773
  80.9296875 157.1976166  14.8021917  81.2425537 159.3286438  14.8860035
  81.1052628 159.4308167  15.9523582  81.7772522 160.3342438  14.0949745
  82.0088730 161.2910614  14.5391321  82.1564102 160.2457275  12.7437096
  85.0185089 164.4412384  11.8122768  84.3637543 165.3555603  11.3424273
  86.0931778 164.5237579  12.5034800  86.5866013 163.6524353  12.6354990
  86.6076660 165.7453308  13.2215929  86.0802460 166.6314392  12.8683805
  86.3453522 165.6311340  14.7460337  86.7982178 164.7435608  15.1878815
  86.8052597 166.4866638  15.2406673  84.9186859 165.7252350  15.0837755
  84.1879883 166.9380035  14.8846207  84.6051178 167.8714600  14.5366526
  82.8200684 166.9444275  15.1774206  82.2527466 167.8544312  15.0491648
  82.1447754 165.8210602  15.6666946  81.1185532 165.8258209  16.0032139
  82.7684097 164.5809021  15.7350302  82.2938232 163.7228851  16.1877518
  84.1728745 164.5587769  15.5261354  84.6410599 163.5883789  15.6006069
  88.1393814 165.9134827  12.8735399  89.0067825 165.5334167  13.6910896
  88.5267105 166.5422516  11.7340555  87.6692505 167.0397949  10.7012815
  87.6181870 168.1061707  10.9211483  86.7175903 166.5387878  10.5240231
  88.3794861 166.8728027   9.3375349  88.1272507 167.5245667   8.5010624
  88.2767487 165.8216553   9.0680189  89.8201370 167.0862122   9.7997217
  90.0258484 168.1566162   9.8008118  90.5445557 166.5821686   9.1599722
  89.9008179 166.5044250  11.2274103  90.1097870 165.4348297  11.2470188
  90.8316879 167.2172699  12.1782541  90.5667114 168.2514648  12.8055716
  92.0084610 166.6404724  12.3197689  92.3007126 165.9154816  11.6801720
  92.9891434 167.0246887  13.3462572  93.8746338 166.4578094  13.0587749
  93.1434097 168.1036072  13.3301277  92.7252960 166.5467224  14.7418518
  93.5312805 166.8672485  15.6510420  91.6920547 165.7617035  14.9461622
  90.9685211 165.5881500  14.2631721  91.4455948 164.9428711  16.1734505
  92.1846542 165.2300415  16.9213982  90.1442947 165.2947540  16.9362221
  89.3344574 165.0374756  16.2535286  90.0581360 164.6610107  17.8188591
  89.9491043 166.7596893  17.3820171  90.2561264 167.0987396  18.7213001
  90.4820404 166.3059998  19.4190922  90.0606613 168.3652954  19.1922245
  90.2956848 168.5013428  20.2375259  89.5219574 169.3641357  18.3560562
  89.5298157 170.7232361  18.7485180  89.6655121 170.8683167  19.6877403
  89.2249832 169.0547638  17.0332165  88.6461029 169.7610931  16.4566650
  89.4893570 167.7427521  16.5009441  89.1400375 167.4282837  15.5285845
  91.5535355 163.4685822  15.9015608  91.1384201 162.8895416  14.8845348
  92.1585999 162.7409058  16.8696575  92.5440598 163.2260895  17.6672306
  92.0725632 161.2501678  16.9388218  92.0368042 160.7785797  15.9567738
  93.2923050 160.6799927  17.5798092  93.4579697 161.1257935  18.5605850
  93.0895538 159.6139832  17.6828308  94.2072067 160.8454590  17.0108776
  90.8257828 160.8349762  17.6989403  90.5685806 161.4260864  18.7464962
  90.1358871 159.7796936  17.2006359  90.4288254 159.3994141  16.3120022
  88.9961777 159.0589142  17.9214592  88.4305191 159.7473907  18.5492573
  87.9211502 158.5700531  16.9794083  87.1164856 158.1117706  17.5543785
  87.5491562 159.4519501  16.4578838  88.2874374 157.6147308  15.9252024
  88.3968430 157.9180603  14.6082067  88.3715134 158.9061432  14.1729279
  88.8676758 156.8362427  13.9604998  89.1232071 156.7700958  12.9856005
  88.9788437 155.6962280  14.7639332  89.5138474 154.4133911  14.5198202
  89.8437195 154.0653992  13.5521002  89.5392456 153.4771576  15.5971622
  89.9252472 152.4991913  15.3501577  89.0362473 153.8320007  16.8841610
  89.1100464 153.1731415  17.7367172  88.6603699 155.1991577  17.0851440
  88.4716110 155.5536957  18.0876770  88.5669327 156.1578827  16.0502262
  89.5449982 157.9158173  18.8146191  90.5557327 157.3016663  18.4391575
  88.8582611 157.6567230  19.9234867  88.2040558 158.3525085  20.2521286
  89.3217087 156.5858002  20.8281116  89.6264801 155.7642670  20.1798134
  90.5839844 156.9256287  21.6889572  91.3474655 157.2185669  20.9682732
  90.5022583 157.8865051  22.8454609  89.7189331 157.5878754  23.5421104
  91.4766541 157.8625336  23.3333855  90.2270203 158.8752441  22.4783669
  90.9328308 155.6843414  22.2107201  91.7990723 155.7415314  22.6205368
  88.0968552 156.0836945  21.6236210  87.3355179 156.9228516  22.1376381
  87.7137833 154.7710266  21.5690308  88.4075623 154.0955811  21.2817364
  86.3973999 154.3005981  21.9609833  85.7285461 154.8000946  21.2600975
  86.2810440 152.7672272  21.7951260  86.6902390 152.2263794  22.6484375
  84.7894211 152.3273773  21.8440876  84.3517914 152.7664642  20.9475460
  84.7151566 151.2420654  21.9124393  84.3078995 152.6474304  22.7681026
  86.8813553 152.1239777  20.5080338  86.3841782 152.4700775  19.6018715
  87.8976135 152.5161591  20.4692440  87.0316086 150.5602417  20.5129128
  86.0268402 150.1789246  20.3308640  87.7608643 150.1722717  19.8017502
  87.3943787 150.2718506  21.4994850  85.9950790 154.6528473  23.4072857
  86.7348328 154.3311310  24.3568897  84.8606186 155.2837219  23.6019497
  84.2551575 155.4783478  22.8173256  84.1924667 155.3432922  24.9383144
  84.9339676 155.2328033  25.7295570  83.5725021 156.6989899  25.0955811
  82.8148651 156.8759613  24.3321857  83.1078033 156.7385864  26.0807648
  84.3132553 157.4772644  24.9120159  83.2275696 154.2234344  25.1404305
  82.4394989 153.9568329  24.2314720  83.1487350 153.6733093  26.3345299
  83.8726273 153.8784027  27.0083370  82.0979996 152.7611542  26.9023933
  81.2443390 152.8140106  26.2266884  82.6432266 151.3170166  26.8180828
  83.5653076 151.2410583  27.3943558  81.8969040 150.6608276  27.2658596
  83.0370560 150.7920532  25.4313354  82.1559372 150.6990509  24.7964382
  83.6587524 151.5018463  24.8856506  83.8130264 149.4844971  25.5480118
  85.0072174 149.3626862  25.5345592  83.1208878 148.4243469  25.8157215
  83.4903946 147.4892426  25.9113979  82.1641083 148.5322113  26.1207352
  81.6479111 153.2330170  28.2514439  82.3727188 153.9680786  28.9697609
  80.4759293 152.7829437  28.6736012  79.9720764 152.2216492  28.0019093
  79.8932419 153.0249023  30.0215206  79.9232635 154.0931244  30.2362080
  78.4187546 152.6272278  30.0561943  77.8751755 153.1009979  29.2387886
  78.2717972 151.5502319  29.9749432  77.5819321 153.1440277  31.6336117
  76.3335876 152.7088013  31.4409771  80.6679459 152.3453522  31.1936588
  80.8967056 151.1744843  31.0937252  80.9654541 152.9441528  32.3332443
  80.7443771 153.9294128  32.3110504  81.8058624 152.3869934  33.4532547
  82.7575912 151.9501495  33.1507912  82.2393723 153.5357361  34.3007126
  82.7844696 154.2754364  33.7143593  81.3610687 153.9983673  34.7509079
  83.1957626 153.1670074  35.4317207  82.7692566 152.4297333  36.1118813
  84.0981216 152.6284790  35.1422005  83.7084732 154.4276733  36.1389923
  82.8339081 154.9790039  36.4843521  84.3174362 154.1875916  37.0105629
  84.5939102 155.2468567  35.2565308  84.8596725 154.7929688  34.3942909
  85.0836563 156.4614716  35.4525337  85.1143188 157.0520782  36.6305885
  84.5832291 156.4980316  37.2871552  85.5766144 157.9273682  36.8312416
  85.6154327 157.1756287  34.4524727  85.5696640 156.9786682  33.4629173
  85.8722992 158.1520691  34.4783974  81.0498199 151.2622528  34.1397743
  81.6560669 150.2391663  34.4724236  79.7332687 151.4775391  34.4273415
  79.3669662 152.3771057  34.1504250  78.8642960 150.5125275  35.1634445
  79.4402084 150.1360474  36.0088387  77.6013870 151.2358551  35.6706047
  77.2375870 151.9120178  34.8969383  76.4816360 150.3796387  36.1547012
  76.8827362 149.5378418  36.7191315  75.8109512 150.9743958  36.7748070
  75.8201981 150.0135803  35.3694572  78.0562439 152.2569427  36.8242912
  78.6645203 153.0781097  36.4450989  77.1885757 152.7193604  37.2948532
  78.7680283 151.5454254  37.9591255  79.7495956 151.1652679  37.6761017
  78.8692169 152.2390289  38.7938538  78.1047745 150.7592163  38.3197670
  78.5437851 149.2815094  34.3440399  78.2959518 148.2114563  34.9492493
  78.6157150 149.3312531  32.9778900  78.9003754 150.2120056  32.5737381
  78.0940857 148.2278595  32.1741791  78.2200546 147.3018036  32.7351112
  76.5606384 148.4031982  31.9094963  76.1063919 147.4541016  31.6248932
  76.0473404 148.7005463  32.8239441  76.2733994 149.7221069  30.7272453
  74.9816208 149.5697937  31.0322113  78.8541718 147.8483582  30.8867397
  78.5834732 146.7447357  30.3908253  79.8147125 148.6154480  30.3642750
  80.1312714 149.4039764  30.9102726  80.4941940 148.2750854  29.1182098
  81.5111847 148.6660919  29.0875683  80.5879669 147.1893158  29.0977516
  79.7230072 148.7322083  27.8025227  80.2914276 148.4774780  26.7689056
  78.4847412 149.3390503  27.9239922  77.9352188 149.2554169  28.7672806
  77.7436447 149.7011261  26.6736755  77.7328720 148.8103790  26.0455437
  76.3422852 150.1907501  27.0408688  75.8926392 149.5745239  27.8194447
  76.4262543 151.2033386  27.4354954  75.4832916 150.0847778  25.8348999
  75.4977188 149.1446533  25.0534382  74.8322372 151.1662292  25.5823097
  74.2520218 151.1300964  24.7563915  74.8283463 151.9518433  26.2170601
  78.5044861 150.7157898  25.8297024  79.1729507 151.5883636  26.3540173
  78.5041275 150.6124268  24.5211048  77.9865494 149.8543854  24.0996761
  79.1981888 151.5200195  23.6189442  80.2453690 151.5320282  23.9212360
  79.1963730 150.8878021  22.1807060  79.7252045 149.9374390  22.2530193
  78.1628189 150.7037506  21.8874626  79.7989960 151.7193909  21.1536140
  79.2006683 151.9760132  19.9051704  80.0243149 152.9154205  19.3990955
  79.8125610 153.4302368  18.4736099  81.1261673 153.1223145  20.1697235
  81.9471741 153.6800995  19.9828167  80.9999771 152.3549805  21.2702541
  81.7410660 152.2755280  22.0518417  78.5563965 152.9241791  23.6382790
  77.3779678 153.0674438  23.3761826  79.3472290 154.0129395  23.8507347
  80.3514786 153.9409485  23.9307346  78.8438873 155.4029846  24.0279675
  77.7563095 155.3739014  23.9613438  79.0967789 155.8482513  25.4446354
  80.1803665 155.8725891  25.5602112  78.6820984 156.8489227  25.5662231
  78.4858780 154.9527588  26.5760956  79.0289536 154.0080261  26.5506668
  78.6654053 155.4537811  27.5273323  76.7358398 154.4758759  26.4592781
  76.0362320 156.0682831  26.9046516  76.2144012 156.8200684  26.1357670
  74.9494934 156.0008087  26.9552212  76.5562210 156.3934326  27.8057537
  79.3984146 156.4044342  23.0176544  79.2345428 157.5963135  23.2132626
  79.9902878 155.9317322  21.9114170  79.8992615 154.9428406  21.7272453
  80.7202759 156.7487640  20.9428577  80.6835403 156.2165833  19.9923134
  80.1932526 157.6938019  20.8115635  82.1673050 156.9547272  21.3519917
  82.8718643 155.9867706  21.6108761  82.7059402 158.1946259  21.2643108
  82.0703049 158.8944550  20.9089298  84.2052002 158.3808441  21.2709389
  84.7799377 157.5427246  21.6650276  84.7647934 158.4368439  19.8267059
  84.4652939 159.3178101  19.2589951  85.8378448 158.6184845  19.8873062
  84.4729996 157.2616119  18.9478989  85.2607498 156.1804810  18.8756332
  86.2012787 156.0176239  19.3808918  84.5293884 155.1687927  18.2966785
  84.8502655 154.2180634  18.1815987  83.2694702 155.5730286  17.9660931
  82.1151733 154.9048004  17.4756069  82.1083069 153.8493195  17.2468224
  80.9665222 155.6549377  17.1237106  80.1132965 155.2096100  16.6337223
  80.8655243 157.0396118  17.4757271  79.9141312 157.5220642  17.3069401
  81.9827805 157.7097321  18.0021172  81.9805527 158.7665100  18.2248650
  83.2210236 156.9987030  18.2314854  84.7293549 159.5762482  22.0222969
  84.0760803 160.6398163  21.9482861  85.8868866 159.3718414  22.6454201
  86.3021622 158.4524384  22.6937141  86.8007202 160.4400482  23.1007862
  86.2121964 161.2657776  23.5006790  87.6976624 159.9541168  24.1820278
  87.1892471 159.4976654  25.0313072  88.3688812 159.2042389  23.7633839
  88.4884186 161.1492310  24.7668629  89.2066879 161.4763336  24.0150700
  87.7020569 161.8724670  24.9828911  89.1934357 160.8614044  26.1142349
  88.4824753 160.5614014  26.8840618  89.8560638 160.0113831  25.9514809
  90.0057983 162.0980988  26.5844727  90.8132935 162.2668762  25.8720341
  89.3622284 162.9773102  26.5543880  90.6714706 161.8658600  27.9103470
  91.2069244 161.0096436  27.8937950  91.4108353 162.5270538  28.1008034
  90.0509262 161.7986755  28.7043915  87.6187210 160.9066010  21.9166927
  88.2889862 160.1027069  21.2864647  87.7548904 162.2094574  21.8349781
  87.3052673 162.8596802  22.4635887  88.5558167 162.8993073  20.8503609
  88.8810043 162.1321564  20.1476307  87.5881348 163.7787476  20.0753040
  86.9753647 164.4180145  20.7108860  88.2025299 164.3821411  19.4070644
  86.7716599 162.9593811  19.0950603  87.2866287 162.6722717  17.7961979
  88.2110748 163.0526123  17.3873672  86.4817963 162.0683899  16.8472786
  86.8477554 161.9500275  15.8380899  85.2178574 161.5745087  17.2303391
  84.5918198 161.0398712  16.5313034  84.6536102 161.8339386  18.4827271
  83.6460266 161.5362701  18.7328873  85.4584579 162.5085144  19.4183254
  85.0214310 162.8752899  20.3353271  89.7604446 163.6594238  21.5058861
  89.6229630 164.3810272  22.4680996  90.9107437 163.6837006  20.8610878
  91.0409698 163.0564575  20.0802479  92.1352844 164.3173065  21.4176559
  91.8671875 165.1523438  22.0649033  93.0913773 163.3743134  22.1706257
  93.9857712 163.9482422  22.4130688  92.4384155 163.0487823  23.5404568
  91.4997787 162.5195160  23.3762722  93.0905533 162.4056702  24.1314163
  92.1186676 163.9483490  24.0664120  93.4018326 162.1253204  21.4819489
  94.1413727 162.4111023  20.9406395  92.9140472 164.9327240  20.2111549
  93.0008850 164.3110199  19.1743984  93.5245819 166.1208038  20.3879719
  93.5976791 166.6315308  21.2562561  94.0875092 166.9672852  19.3523445
  93.4926834 166.9635315  18.4389629  94.1980362 168.4069824  19.9045658
  94.7800446 168.2620850  20.8147144  94.6269455 169.0604095  19.1448479
  93.2003250 168.8044128  20.0908871  95.4930496 166.4685822  18.9280930
  96.3389587 166.2790222  19.8334351  95.7886658 166.2086182  17.6329231
  95.0596466 166.2696533  16.9365768  97.1001587 165.5731506  17.2414742
  97.3941650 164.8202515  17.9727802  96.9402008 164.8251038  15.9119301
  97.9658890 164.6167450  15.6075439  96.0813522 163.5375366  16.0733356
  95.0386887 163.7700348  15.8567553  96.3638306 162.8002014  15.3218966
  96.1411362 163.0869598  17.0640507  96.4813080 165.6849670  14.9428854
  96.6408539 165.2435760  14.1054354  98.1943665 166.5814667  17.0403728
  99.3418198 166.2528687  17.2978840  97.8689499 167.8813171  16.7578030
  96.8894501 168.0055542  16.5450802  98.7426910 169.0457001  16.8813667
  99.8124237 168.8401337  16.8423004  98.3802032 169.9093475  15.6646557
  97.3041000 169.9074554  15.4911680  98.6950150 170.9271088  15.8952169
  99.0790329 169.3703766  14.3996630 100.1407166 169.3996277  14.6447697
  98.8914413 168.2987671  14.3321924  98.7599106 170.0129089  13.0621986
  99.2175751 171.0021667  13.0635366  99.1783218 169.4022980  12.2620726
  97.1624069 169.9381714  12.8149853  96.8498459 168.9005127  12.6979694
  96.6367188 170.4235535  13.6372709  96.7618179 170.6726990  11.6013155
  97.2315369 170.2244568  10.8276539  95.7685623 170.6426239  11.4206381
  96.9769287 171.6570435  11.6712990  98.6159668 169.7623596  18.2547779
  97.5646057 169.6884460  18.9264679  99.7008362 170.5009613  18.5702457
 100.5022888 170.5339813  17.9564991  99.9434586 171.0026398  19.9264145
  99.6421356 170.1645813  20.5548878 101.4779434 171.0119934  20.1349869
 101.7624893 171.1976929  21.1706734 102.1002579 170.1528931  19.8844166
 102.0559235 172.2223969  19.3184414 102.0971832 172.0013580  18.2518864
 101.4373779 173.1090393  19.4575787 103.4915161 172.5367279  19.7933998
 103.5074844 172.6410522  20.8782787 104.0982132 171.6899261  19.4725361
 103.9700241 173.8536377  19.2014809 103.1758041 174.5808258  19.3703022
 104.8725510 174.2516022  19.6653461 104.2552948 173.8135681  17.7089233
 103.6432266 173.2189789  17.1686058 104.2360306 174.7496338  17.3300858
 105.1404419 173.3677979  17.5142479  99.2291031 172.2564240  20.3240776
  99.4667206 172.6994629  21.4518299  98.4885406 172.9031677  19.4323139
  98.4391327 172.5949402  18.4717617  97.9601898 174.2276611  19.7023544
  98.0064545 174.4875641  20.7599049  98.8342896 175.2687683  18.9659348
  98.3427658 176.2411041  18.9986916  99.7619934 175.4180145  19.5183868
  99.1752701 174.9801331  17.4844704  98.7049332 173.9873810  16.9142208
  99.7755814 175.8737488  16.8327065  96.4934464 174.4320221  19.3589592
  95.9312057 175.5685120  19.5191593  95.8115616 173.4141541  18.8978786
  96.1977081 172.5128479  18.6557674  94.3299561 173.4848633  18.6833668
  94.0235291 174.3352966  18.0742989  93.8254242 172.2039795  18.0390682
  93.9063797 171.4152832  18.7870693  92.7417297 172.3073120  17.9839630
  94.4556808 171.9326630  16.6457233  94.0830536 172.7038727  15.9715796
  95.5335312 171.9542694  16.8066044  94.0280914 170.3794556  15.8035822
  92.2494278 170.4574738  15.6183023  92.0118256 171.0805817  14.7561054
  91.7817230 169.5076294  15.3591833  91.9284363 170.8944092  16.5639000
  93.6470108 173.5844574  20.0378132  94.2204895 173.1628418  21.0493431
  92.4327927 174.0690308  20.0484695  92.0673141 174.5173798  19.2205181
  91.5364456 174.2681427  21.1471481  91.8398056 173.5444031  21.9036274
  91.6734619 175.6510773  21.7830029  92.7440109 175.7487946  21.9632359
  91.4346085 176.3873291  21.0155506  90.8792267 175.7477875  22.9959221
  91.3999710 175.7039032  23.8012161  90.0820236 174.1367798  20.7029305
  89.7618561 174.8824615  19.7407246  89.2571716 173.2306824  21.2562866
  87.8445282 172.9799042  20.8439732  87.8721924 172.8630676  19.7606068
  87.1391830 173.7199402  21.2220497  87.4549637 171.6246490  21.4002285
  87.8106689 170.8582611  20.7115936  86.3903809 171.5820770  21.6303520
  88.2894821 171.6054230  22.6977406  88.5357666 170.5734253  22.9476280
  87.7635803 172.1320343  23.4941158  89.5713577 172.4088898  22.4528103
  89.8077850 173.0487976  23.3029346  90.7460175 171.4266663  22.2941933
  91.0046921 170.9024658  21.1751976  91.5069275 171.1896057  23.3435154
  91.2936478 171.7728119  24.1400661  92.5400314 170.1219482  23.4027424
  93.0932617 170.2724457  22.4757118  93.5022049 170.4133301  24.5670586
  93.9837036 171.3325195  24.2333412  92.9196243 170.7474213  25.4255962
  94.4362869 169.3050537  24.9981098  94.9265594 169.7210693  25.8782578
  93.8903503 168.3865356  25.2135239  95.5206985 169.0480499  23.9743023
  95.5334778 169.5524902  22.8651943  96.4672318 168.2283936  24.3681831
  97.1037827 167.9253082  23.6449642  96.5445633 167.7939453  25.2766819
  91.8873978 168.7337646  23.5129871  92.4159546 167.7004700  23.0493088
  90.7426147 168.6457062  24.1990528  90.3713303 169.5009613  24.5873528
  90.0355835 167.3458405  24.5199490  90.1977539 166.6516418  23.6953964
  90.5433350 166.7724304  25.8994637  90.0717316 165.8130188  26.1121178
  91.5792770 166.4786682  25.7302456  90.4153061 167.6535797  27.1103001
  90.7021255 168.6827698  26.8944683  89.3696136 167.6480865  27.4178772
  91.3324203 167.1890564  28.2739239  90.9994736 167.6446991  29.2064724
  91.2910538 166.1022949  28.3470497  92.7691422 167.6326141  28.1136780
  93.1000061 167.3545074  27.1130352  92.7269821 168.7143250  28.2410393
  93.7444305 167.0859222  29.0790520  93.7343369 166.0759888  29.0756531
  94.6485519 167.3456421  28.7113247  93.6679306 167.4615173  30.0134907
  88.5142670 167.5163574  24.4620018  87.9825287 168.4251404  25.1025047
  87.7844849 166.5616760  23.8396072  88.2654572 165.8052826  23.3741665
  86.2952576 166.5427551  23.8764019  85.9544601 166.8066711  24.8775539
  85.7582092 167.5993500  22.8402557  84.7813187 167.9315186  23.1916084
  86.3500366 168.5130463  22.8950119  85.6645584 167.1624146  21.3774185
  86.7207947 167.3848877  20.4740906  87.5973129 167.9187164  20.8104515
  86.6042862 166.9588470  19.1196251  87.3197784 167.2372742  18.3600540
  85.4977036 166.2130585  18.6994381  85.5341263 165.9032745  17.6654587
  84.4263535 166.0615234  19.5624523  83.5720215 165.4878235  19.2347488
  84.4779205 166.6219635  20.8662548  83.6619339 166.5460815  21.5696926
  85.7646713 165.0867767  23.6758270  86.5164490 164.1593170  23.3961010
  84.4416351 164.8805237  23.6635399  83.8893585 165.6076813  24.0951996
  83.7381668 163.6383972  23.4238796  84.4143295 162.9202271  22.9600697
  83.2387314 162.9575958  24.6768799  82.4013214 163.5141754  25.0976849
  82.9352112 161.9300690  24.4764938  84.2491760 162.8147736  25.7835350
  84.6083298 163.8485260  26.5631142  84.1250381 164.8091888  26.4632931
  85.3943405 163.4586182  27.5906162  85.9081955 164.0609894  28.2176743
  85.4796143 162.0840912  27.6323090  86.0614395 161.1920776  28.5679646
  86.4184799 161.5875549  29.5073910  86.0573883 159.7806396  28.2614365
  86.4944000 159.0552063  28.9316273  85.4589462 159.3587494  27.0634670
  85.4789581 158.3169556  26.7794895  84.8923874 160.2780609  26.1540985
  84.4524002 159.8137817  25.2838974  84.9564972 161.6718292  26.3763885
  82.6362534 163.8103180  22.3979359  81.9558792 164.7964478  22.5583115
  82.5927124 162.9522705  21.4020138  83.2598877 162.1945343  21.4306469
  81.5354309 162.7805634  20.4146366  80.8491364 163.6273651  20.4192600
  81.9890289 162.6867981  19.4279461  80.6884918 161.5008850  20.7147388
  80.9774094 160.4049835  20.2494278  79.7341003 161.6189423  21.6423512
  79.4943771 162.5671234  21.8944855  78.9308472 160.5413971  22.2446957
  79.5858994 159.6717987  22.1916695  78.6677933 160.8800049  23.7178364
  77.9532242 161.7030945  23.7131100  78.2479248 160.0041962  24.2125759
  79.9336777 161.2030182  24.5695019  80.4504013 162.0365143  24.0937023
  79.4387131 161.7029266  25.9574089  79.1629868 160.8510132  26.5789547
  80.2605438 162.2212830  26.4513702  78.6114655 162.3983917  25.8157043
  80.8766556 160.0523071  24.7642460  81.3033371 159.6752014  23.8348217
  81.7230225 160.2806396  25.4120293  80.3997879 159.1825104  25.2160587
  77.5662079 160.2670746  21.5537605  76.8931427 161.2549744  21.2437649
  77.1676636 159.0291290  21.4582443  77.7405014 158.3290710  21.9075546
  76.0811539 158.6144104  20.5945892  76.1291428 159.1701050  19.6581097
  76.2555389 157.1184845  20.2542858  75.2689056 156.8216553  19.8985386
  77.1732483 156.8438873  19.0507965  78.1790848 157.0999908  19.3836803
  77.0954361 155.7983246  18.7527256  76.9897079 157.4845276  18.1882477
  76.6781998 156.3786316  21.3702126  76.7500000 155.4433594  21.1660385
  74.7276535 158.9343414  21.1884956  74.3775253 158.3222656  22.1892490
  73.9275360 159.8346863  20.5905609  74.2484436 160.0783691  19.6644211
  72.6158066 160.2295990  21.1939850  72.7575531 160.5401917  22.2291431
  71.9926453 161.5075531  20.5247860  71.0225830 161.6669159  20.9956284
  72.7040863 162.3203125  20.6709251  71.7201614 161.3309937  19.0455837
  72.5266800 161.8203583  18.4995499  71.6895905 160.2728271  18.7858868
  70.4429245 161.9319458  18.5875244  70.4576645 162.9799652  18.8867702
  70.5160217 161.9006958  17.5004272  69.2086182 161.2774658  19.1449699
  68.7795486 161.5987396  20.0010014  68.6337967 160.2183075  18.5703735
  68.9811249 159.6468353  17.4555893  69.4523087 160.2132416  16.7647400
  68.5055923 158.8043060  17.1655598  67.6229553 159.6832428  19.0783825
  67.1968536 160.0710754  19.9079151  67.0668488 159.0987396  18.4707603
  71.6206360 159.0352631  21.2712269  70.8125763 158.9352112  22.1896000
  71.7760086 157.9997711  20.3873692  72.4445724 158.2120514  19.6606865
  71.0803604 156.6861877  20.5126152  70.0124588 156.9042664  20.5010509
  71.5357513 155.8804474  19.3545589  70.9665909 154.9566193  19.2511349
  71.2391663 156.3776093  18.4309921  72.9694214 155.5900269  19.2368107
  73.1758347 154.7887421  19.7235813  71.4174652 155.8643036  21.7511539
  70.5316696 155.1663818  22.1348724  72.5601578 156.0040741  22.3907909
  73.2993851 156.5495453  21.9711533  72.8688202 155.3469696  23.6729240
  72.1605835 154.5199890  23.7240448  74.1966629 154.6310120  23.6101303
  75.0847549 155.2259369  23.3969593  74.4045639 154.1152649  24.5476208
  74.1600800 153.8387146  22.8624325  72.6275330 156.2917023  24.9080257
  72.6870193 155.8658905  26.0144882  72.2749405 157.5654144  24.7332993
  72.1659241 157.8943939  23.7846203  72.0178680 158.6087799  25.8080025
  72.5557480 158.2777710  26.6963825  72.6629791 159.9921417  25.4567299
  72.3088074 160.2867432  24.4688683  72.3582153 160.6723938  26.2520180
  74.1756516 160.0334320  25.4235020  74.5828171 159.2776184  24.7518826
  74.5536728 161.4225769  24.8697491  74.2451935 162.2393341  25.5223236
  75.6370926 161.5384216  24.8397980  74.1670914 161.4873962  23.8526707
  74.7756195 159.9424133  26.8464928  74.6337204 158.9664307  27.3106136
  75.8580246 160.0651093  26.8083515  74.3389130 160.7136688  27.4809666
  70.5501099 158.7756958  26.2302017  69.6787796 158.5814514  25.3895569
  70.2485504 159.0444183  27.5290737  71.0184631 158.9668121  28.1781578
  68.8663177 159.2158813  28.0465107  68.0822144 159.2479248  27.2900257
  68.5153427 157.9384460  28.8655987  68.7578278 157.1351776  28.1698513
  69.2430725 157.8045502  29.6659679  67.1367950 157.6672516  29.2328815
  66.8461533 158.4918671  29.8837547  66.0405655 157.4874725  28.1956978
  66.1703186 156.5870667  27.5952415  65.0618744 157.3910522  28.6657734
  65.9327240 158.3519592  27.5406094  67.1020660 156.4933167  30.2384892
  67.8423767 156.7242584  31.0044479  66.1367264 156.4290924  30.7405930
  67.2060165 155.5152283  29.7687473  68.7380066 160.3961792  29.0542583
  69.2970200 160.3519440  30.1743889  67.9294968 161.4466248  28.7547970
  67.1498718 161.6184082  27.5600052  66.1345596 161.2435150  27.6892757
  67.6002274 161.1273346  26.6973743  67.1427689 163.1449127  27.2928715
  66.1568832 163.2872162  26.8502922  67.9607849 163.3884583  26.6149178
  67.3354645 163.7625427  28.6745224  66.3897171 164.2643585  28.8790703
  68.1372757 164.4939880  28.7754364  67.7415161 162.6235199  29.5667191
  68.5702820 162.9635010  30.1877422  66.7083969 162.3187714  30.6811142
  65.6906204 162.9941406  30.7313480  67.1049881 161.5051575  31.7162380
  67.9681168 161.0118713  31.5379429  66.4548111 161.1721039  32.9545593
  65.3857651 161.0947571  32.7564201  67.0480576 159.8720703  33.5145073
  66.6889877 159.1254425  32.8061867  68.1351624 159.9392700  33.4722519
  66.5761795 159.5791931  34.9765205  67.0281448 160.3684387  35.5772896
  65.4955368 159.7215424  34.9844513  67.0595169 158.2326660  35.3973579
  68.0886078 158.0578003  35.0835266  67.1599274 158.2451172  36.4826546
  66.1672211 157.0712738  35.0019875  65.7301559 157.1641541  34.0961990
  65.9178772 156.0496368  35.8021355  66.2989578 155.8734894  37.0175819
  66.9687653 156.5089874  37.4269714  65.9357910 155.1573639  37.6302719
  65.2283401 155.0239563  35.2400284  64.8594131 155.0691071  34.3009071
  65.0320511 154.2337646  35.8376656  66.5779572 162.3487244  33.9618797
  65.5735626 162.6329041  34.6492767  67.6610031 162.9945221  34.0186157
