Cpptraj Generated Restart                                                       
   30  4.0000001E-01
  84.2787628 154.6729736  13.8035593  85.3611450 153.8132324  13.5261850
  83.3242188 153.9449768  14.3416967  85.1348267 152.4290009  13.8414993
  82.9614639 152.8608704  14.7377615  83.8433151 152.1101074  14.4109020
  84.8012772 156.3345642  11.3643341  84.6824417 156.8515167  12.4806776
  84.3557663 156.0753479  13.6936131  85.0363922 158.3089142  12.6587505
  84.4447708 156.8903503  14.7334404  85.0665207 159.0259552  13.9028025
  84.6390228 158.0088196  14.9294300  85.2851486 160.2141724  14.0239363
  85.2462463 158.9257355  11.8828268  86.5700989 154.3704681  12.9963789
  86.9173126 153.9288177  11.8244352  86.0135727 151.3365631  13.5960760
  87.0302048 150.6702881  14.1832848  86.7465134 149.4432678  14.8884525
  87.1781082 150.3063354  12.9114885  86.6876373 148.1639252  14.3022966
  87.3114929 149.5439301  11.9883957  87.2108612 147.2776489  13.3474627
  87.1988449 148.4383698  12.5463924  86.5032272 146.6172791  13.0272179
  86.4985275 149.4344025  16.3538952  86.7569580 148.4607391  17.0446873
  86.0768127 150.5099487  17.0597210  86.1435242 151.2848816  16.4759426
