Cpptraj Generated Restart                                                       
   36  4.0000001E-01
  84.3777161 152.4168243  18.6343689  83.4124069 151.8070831  18.1540852
  82.8029480 150.8796692  18.9386654  82.8923416 152.0338745  16.7677059
  81.6460266 150.2535706  18.6154613  81.8427277 151.6253204  16.0806637
  83.4223480 152.8002319  15.7863903  80.5814972 150.2543030  17.7789822
  80.7755966 150.8991852  16.4894085  82.1781616 152.3905182  15.0249243
  82.9812088 153.5120850  14.6735516  79.3693542 149.5916595  18.1084232
  79.6663666 150.6280670  15.8122454  78.4010696 149.6861420  17.2150459
  78.4756088 150.2286072  15.9616556  83.2022018 150.6595001  19.8434830
  77.1446991 149.1515350  17.5270481  76.6068878 147.9097748  16.8479118
  76.1148071 149.6952057  18.1019936  77.3407059 147.2390747  16.1011467
  75.2049332 147.6160583  16.9774170  74.9527206 149.4604034  18.2472801
  74.2187958 148.3313141  17.8016014  73.0730209 148.0040283  17.9999599
  74.8113937 146.8898315  16.3906498  79.2345123 148.8766327  19.3116455
  79.4897308 147.5312500  19.2387981  77.4376297 150.3254700  15.0580969
  77.6279297 150.1139526  13.7546711  83.6831970 152.4503632  14.3286247
  84.7380295 151.9862061  13.4950438  84.8807983 150.6580963  12.9917059
  85.7161102 152.9537201  12.9720945  85.7325668 150.4614258  12.1248045
  86.4500427 152.6174011  12.0657139  86.5196609 151.3754730  11.8151302
