Cpptraj Generated Restart                                                       
   39  4.0000001E-01
  84.6633453 154.3060913  13.6433792  83.7243652 153.5277100  14.3412600
  85.8400955 153.7518616  13.1154156  84.0729828 152.2511292  14.7871218
  85.9094925 152.5082397  13.4618969  85.1929169 151.6063385  14.2041750
  83.4374542 151.2736206  15.5199413  85.2411118 150.2861328  14.6239872
  83.8138657 150.2628784  14.6035233  84.0197067 150.8655701  16.6689339
  85.4621887 150.0335388  15.9655523  82.9058304 149.2914124  14.1341658
  85.2814255 150.6093445  17.2830524  81.7551422 149.1453094  14.5224304
  84.5718689 155.7717285  11.2225466  84.6655121 156.3938446  12.2726822
  84.3646774 155.6453552  13.4867296  85.0167007 157.8215332  12.3357878
  84.4439850 156.5188446  14.4885712  85.1032486 158.6319580  13.5491304
  84.7222214 157.6564331  14.6304274  85.4702835 159.7878113  13.6420650
  85.0863037 158.3542786  11.4767618  82.4666138 154.0434875  14.6294966
  81.3535385 153.3706665  14.3608227  86.8315201 154.4205627  12.4256592
  87.5142670 153.8048859  11.4550171  83.6221161 148.3973999  13.4174919
  83.1154709 147.1636505  12.8947144  81.9549561 147.3847046  11.9542990
  82.6651306 146.2985687  13.9146338  84.2199326 146.5353699  12.1302643
  84.5910187 149.4440308  17.2004395  84.0716553 148.3620453  17.9684525
  83.2209091 147.2357025  17.5215206  84.3481216 148.2720947  19.3783493
  82.8208542 146.3872681  18.3195877  83.8279114 147.3408966  20.0124130
  83.0854797 146.5442047  19.4869061
