Cpptraj Generated Restart                                                       
 6188  4.0000001E-01
  90.3635330 180.8385620  24.0244827  91.3410187 180.8562164  23.7708549
  90.1318283 179.8885193  24.2771244  90.1841507 181.4257660  24.8264351
  89.3791580 180.9532013  22.8679104  88.3712845 180.7764130  23.2434540
  89.4949112 182.2629700  22.0667305  90.4916611 182.2139587  21.6283398
  88.7648315 182.1996002  21.2598400  89.3204575 183.5469818  22.9116058
  88.5153809 183.3956909  23.6306744  90.1890030 183.6070251  23.5674496
  89.2379761 185.1380768  22.0921898  87.4670792 185.2706604  21.5920734
  86.9091187 185.3840027  22.5215511  87.3956680 186.2127838  21.0485554
  87.1559601 184.4533539  20.9414406  89.4350204 179.8058929  21.8869114
  90.4826813 179.2710724  21.5220566  88.3567123 179.4592438  21.2069492
  87.4935684 179.8924866  21.5025272  88.2929764 178.4203644  20.1372147
  88.9326859 177.5813599  20.4109898  86.8948593 177.7313080  20.0512218
  86.1992111 178.5162811  19.7545719  86.8571854 176.5901031  18.9959698
  87.3452454 175.6921387  19.3748455  85.8351593 176.2529602  18.8230400
  87.2995834 176.9053040  18.0509682  86.4402008 177.2619019  21.4446011
  85.8162079 176.3819580  21.2882805  87.3291168 176.8984528  21.9601974
  85.6095047 178.2767181  22.2472839  84.7035751 178.5516357  21.7070885
  85.2826614 177.7706909  23.1556988  86.1383820 179.1969299  22.4954414
  88.8509216 179.0012054  18.8430653  88.6873322 180.1231842  18.4519405
  89.7198868 178.1835480  18.1913586  89.8609924 177.2543945  18.5612717
  90.3807220 178.4011688  16.9079151  89.9289551 179.2982330  16.4845200
  91.8630066 178.6355591  16.9667645  92.2694931 178.7995148  15.9687757
  91.9762344 179.5696564  17.5169849  92.6711502 177.5162201  17.6761570
  92.3492966 176.3029938  17.6452084  93.6847458 177.7667847  18.4258232
  94.1642990 177.0149841  18.9000702  94.1541367 178.6593475  18.3700485
  89.9094238 177.4205780  15.8208036  90.1670761 177.6085205  14.6320868
  89.1949921 176.3865967  16.2509937  89.1063461 176.2740479  17.2507782
  88.7906647 175.2460022  15.4421682  89.5725250 174.8144989  14.8171911
  88.2194061 174.1012115  16.2893429  89.0040741 173.5884247  16.8456230
  87.3594589 174.4743347  16.8455582  87.6178741 173.0208130  15.4401388
  88.4640045 172.2268372  14.6803455  89.5294571 172.4035187  14.6800785
  87.9679184 171.2540436  13.8010025  88.6658020 170.6136475  13.2821264
  86.5558090 171.0944519  13.7045460  86.1118240 170.4016418  13.0050554
  85.7301407 171.9666138  14.4418135  84.6655579 171.8803864  14.2816725
  86.2006607 172.9303436  15.3452721  85.5875244 173.5663910  15.9664955
  87.8002090 175.8397675  14.4119110  86.8536224 176.5836792  14.6704369
  88.0452957 175.4981079  13.1322880  88.7925644 174.8627625  12.8913822
  87.1503372 175.9853821  12.0420542  86.8463211 177.0235748  12.1756124
  87.8389130 175.9514618  10.7128353  88.7189941 176.5906677  10.7833614
  88.1215820 174.9354553  10.4372921  87.0223618 176.5117950   9.5312471
  86.0796280 177.2813721   9.8136511  87.3538132 176.2931824   8.3391705
  85.8768768 175.0984802  11.9516306  85.7261047 173.9982300  11.4055567
  84.8254700 175.6648712  12.5617218  85.0524521 176.5706329  12.9466381
  83.4947586 175.0188293  12.8441257  83.6168518 174.1264038  13.4579382
  82.6026382 176.0133667  13.6692762  81.5567703 175.7099457  13.6223593
  83.0131989 176.0352173  15.1304417  84.0567093 176.3380585  15.2168159
  82.3681564 176.6361084  15.7714958  83.0289307 174.9899445  15.4390955
  82.5617523 177.3264313  13.1548424  82.0203705 177.8794403  13.7229052
  82.6631927 174.5393829  11.5952272  81.7140350 173.7821808  11.6918230
  83.1130905 174.9834442  10.4250088  83.9956665 175.4685516  10.3487043
  82.6396866 174.4463959   9.1710339  81.6044998 174.1127472   9.2428560
  82.6874466 175.5422821   8.1336880  81.9740143 175.2962799   7.3471870
  82.4361191 176.5321655   8.5145836  83.9695740 175.6379089   7.7051935
  84.1361923 176.3828430   7.1230412  83.3248138 173.1197205   8.7194014
  82.8005676 172.5112610   7.7891917  84.3465424 172.6533508   9.4355717
  84.8442688 173.1872101  10.1336803  85.0129547 171.3869934   9.0590115
  85.1304626 171.4659119   7.9782391  86.3191528 171.2434082   9.7860260
  86.1549683 171.4564972  10.8423109  86.7272415 170.2326965   9.7820196
  87.4264069 172.1915131   9.2167320  87.1073990 173.2208710   9.3802853
  88.7508774 172.0667114   9.9911528  89.3218384 171.1469116   9.8643703
  89.3876801 172.9236450   9.7715302  88.4778442 172.0444031  11.0461645
  87.6794891 171.8637848   7.7401986  86.8178406 172.1378937   7.1314893
  88.5365829 172.4577942   7.4229608  87.9794998 170.8202972   7.6441550
  84.1487885 170.1262970   9.1723938  84.2931824 169.2346802   8.3194838
  83.2420959 169.9635773  10.1649055  83.1006699 170.6924286  11.4110670
  82.3577118 171.4807434  11.2899332  84.0237122 171.1436920  11.7750063
  82.5704346 169.6150360  12.4196253  82.1789093 170.1283112  13.2978964
  83.3726273 168.9172974  12.6599607  81.5651779 168.8471527  11.5155210
  80.5737762 169.2893677  11.4170780  81.5465775 167.8165283  11.8698368
  82.1763611 168.9124451  10.1203623  82.7613602 167.9961243  10.0414028
  81.1128159 169.0237579   8.9796934  80.7142715 168.0164032   8.4915762
  80.6629257 170.2232971   8.6443892  81.2155762 171.0169830   8.9354849
  79.5122452 170.5028229   7.7625632  78.7835159 169.7288666   8.0035257
  78.7954483 171.8324127   8.0144196  78.0048370 171.9795837   7.2786293
  78.0154419 171.7782440   9.3605309  78.7991867 171.8076172  10.1174917
  77.2423859 172.5413361   9.2700701  77.4901047 170.8303070   9.4769144
  79.6342468 172.9942017   7.9874678  80.3649597 172.7964172   7.3970976
  79.8274689 170.3487396   6.2564192  79.0156784 170.0663300   5.4054317
  81.1867981 170.3254089   5.9255190  81.9314346 170.4869080   6.5884914
  81.6993256 169.8751526   4.6472335  80.9293365 170.1695099   3.9340963
  82.9569168 170.5813751   4.1787839  83.3370972 170.1742249   3.2418733
  82.6733322 171.6152802   3.9820378  83.9449234 170.5182953   5.1772103
  84.5666809 171.2265472   4.9944520  81.9325867 168.3607941   4.5845647
  82.1856537 167.8904266   3.4275455  81.8270264 167.6064453   5.6957917
  81.5471420 168.1011810   6.5306559  81.9128265 166.1251526   5.6973424
  82.0214310 165.8600922   6.7490344  80.5821915 165.4734344   5.2635355
  80.3414917 165.8558655   4.2716141  80.7549820 164.3992462   5.1975574
  79.5257950 165.7530823   6.3472691  79.4873810 165.0733337   7.5213971
  78.4806061 165.5982666   8.1552792  78.0862045 165.1745300   9.0670290
  77.8974457 166.6275940   7.5235457  77.1110077 167.1675720   7.8552895
  78.5579834 166.7378845   6.3114104  78.2043610 167.2959137   5.4570346
  83.2014465 165.5316010   5.0830884  83.2025299 164.4349670   4.5217500
  84.3738174 166.2164459   5.1769505  84.4314957 167.0533600   5.7394028
  85.6623764 165.8643494   4.4759603  85.4977341 166.1456451   3.4358323
  86.8241348 166.6790161   5.0073924  86.8737793 166.5675659   6.0905428
  87.7171326 166.1885834   4.6199088  86.7695541 168.1351776   4.6311970
  86.7933502 168.1883392   3.5427537  85.7934875 168.4729919   4.9794474
  87.9748917 169.2821655   5.3517256  89.4943848 168.5167236   4.7220492
  89.4126892 168.3719788   3.6447933  90.3283157 169.2058411   4.8553739
  89.6323242 167.5825043   5.2663975  86.0159760 164.3927612   4.5871749
  86.5230789 163.8564758   3.5626905  85.7759323 163.7537537   5.7444053
  85.0806427 164.2066345   6.3202295  86.1061020 162.3385162   5.9237752
  87.1889572 162.2353973   5.8538094  85.7670822 161.9197388   7.3468518
  86.2341080 160.9626007   7.5789099  86.1819153 162.6721039   8.0176449
  84.2217484 161.9078064   7.5027027  83.5679474 163.1319275   7.8738332
  84.1438217 164.0316620   8.0327406  82.1702347 163.0811768   7.9505758
  81.6885757 163.9534302   8.3672094  81.4028549 161.9322357   7.6218333
  80.0762253 161.8256683   7.7797213  79.6636658 162.6653442   7.5644565
  82.1157532 160.7286530   7.3980174  81.5979233 159.7817535   7.3574553
  83.4995270 160.6995239   7.2312880  84.0627136 159.8048248   7.0105557
  85.4639053 161.4035034   4.8925414  85.9934387 160.2977600   4.7507691
  84.4146576 161.7470856   4.1388392  84.0619659 162.6892242   4.2287560
  83.7236786 160.9456177   3.1538081  83.7783051 159.8845520   3.3972409
  82.2573776 161.3675690   3.1998484  81.9627075 161.4065552   4.2485390
  82.2113190 162.3777618   2.7930229  81.2075424 160.4362793   2.4911778
  81.5162125 160.1374969   1.4894043  80.8639908 159.1560669   3.3007343
  80.0672913 159.4075165   4.0008397  80.3562088 158.4593353   2.6337841
  81.7666779 158.7830048   3.7845507  79.8621979 161.1964569   2.3270676
  80.0826950 162.0281219   1.6578819  79.1337509 160.5430756   1.8469152
  79.4706116 161.6000671   3.2608004  84.3363876 161.0714264   1.7235106
  84.0729218 160.2525330   0.8323326  85.1438217 162.0974579   1.5229611
  85.4357071 162.6712494   2.3012092  85.9180450 162.2763367   0.2499321
  86.9789124 162.0501099   0.3570996  85.5553970 161.6286469  -0.5482457
  85.8020782 163.6997986  -0.3321654  84.6992569 164.2767029  -0.2984761
  86.8871765 164.2377167  -0.8860291  87.7438812 163.7030487  -0.8692597
  86.8907166 165.4674835  -1.7312833  86.1995163 166.1878357  -1.2937375
  88.3026123 166.0569000  -1.5433345  88.3574600 167.0064240  -2.0757592
  88.5576782 166.2368011  -0.4989806  89.1757278 165.0959320  -2.1336563
  89.9665298 165.5357208  -2.4543149  86.6142349 165.1769104  -3.2347760
  86.5861969 164.0021210  -3.6494913  86.3242798 166.1797485  -4.0267882
  86.4419556 167.1255798  -3.6926703  85.8914719 165.9584503  -5.3791704
  85.5229874 166.9230957  -5.7281404  87.1226730 165.4835052  -6.2354927
  87.9461060 166.0984344  -5.8722749  87.4219589 164.4575806  -6.0209708
  87.0804138 165.7630768  -7.7848840  86.1703873 166.3984222  -8.3287954
  87.9906082 165.1947021  -8.4536295  84.6415482 165.0155029  -5.5768051
  84.7856369 163.9461975  -6.1807828  83.4322281 165.3966370  -5.0681305
  83.3190689 166.2105865  -4.4809685  82.1614075 164.7268524  -5.3894367
  82.3236542 163.7841187  -5.9119401  81.3627014 164.5090027  -4.0735650
  81.2861404 165.4776764  -3.5796902  80.3648987 164.1408234  -4.3121810
  82.1154938 163.4470520  -3.2263861  82.2390518 162.5329285  -3.8070986
  83.0979233 163.8705597  -3.0176356  81.4646530 163.0564575  -1.6005057
  80.0007935 162.1263885  -1.9849654  80.2596283 161.3928986  -2.7485659
  79.6231613 161.6813507  -1.0644041  79.2006149 162.7790985  -2.3339846
  81.3983765 165.6293488  -6.3805795  81.5685272 166.8251648  -6.4792624
  80.5027466 165.0772400  -7.1849060  80.1796951 164.1267700  -7.0737748
  79.6473999 165.8837433  -8.1020069  80.2465210 166.6782990  -8.5467863
  79.1501312 164.9036102  -9.2324286  79.9829865 164.4488831  -9.7687836
  78.7230225 164.0358276  -8.7297907  78.1583252 165.3691101 -10.3040886
  77.2492294 165.7040100  -9.8046122  78.5227051 166.2556610 -10.8230782
  77.8416748 164.2417755 -11.3046551  77.6199493 163.0667267 -10.8927145
  77.7317047 164.5410309 -12.5308313  78.4710541 166.5681763  -7.3998775
  77.5095444 165.8728485  -7.1113448  78.4823532 167.9274902  -7.2050118
  79.3131943 168.3706207  -7.5703220  77.4046249 168.6748199  -6.6201811
  76.9356613 168.2025299  -5.7569823  77.8712769 170.0570221  -6.2221189
  78.3964691 170.5447998  -7.0433016  77.0187836 170.7022247  -6.0098066
  78.8618317 170.0625763  -4.9827838  78.3673553 169.6186218  -4.1187778
  79.8082123 169.6086426  -5.2767501  79.1488419 171.5348053  -4.5220218
  78.6255951 172.5123749  -5.2047725  79.8915634 171.7767944  -3.5281587
  76.3267288 168.9098511  -7.6311741  76.5629883 169.1302643  -8.8249836
  75.0477371 168.8138733  -7.2347140  75.0605774 168.7098694  -6.2301650
  73.7704086 169.1166229  -7.9385772  73.9377518 169.1678772  -9.0144377
  72.7255630 167.9974670  -7.5901546  72.6315079 167.9735718  -6.5044827
  71.7949753 168.3430023  -8.0404024  73.0744934 166.6449585  -8.2101698
  72.9143829 166.3802948  -9.6038570  72.5975800 167.1325226 -10.3110991
  73.1094513 165.0522614 -10.1027966  72.9047241 164.8287201 -11.1393871
  73.5396271 164.0790100  -9.2310839  73.7477570 163.0664825  -9.5439129
  73.5905685 164.3210907  -7.8333778  73.8159103 163.5427094  -7.1194062
  73.3950500 165.6104431  -7.3314061  73.3496704 165.7077637  -6.2567573
  73.2950134 170.5072937  -7.4740195  73.6034470 171.0206604  -6.3811607
  72.4314957 171.1514893  -8.2450781  72.1990128 170.7240143  -9.1301289
  71.9461746 172.5919800  -8.1045761  72.2054672 172.9742279  -7.1172714
  72.5895615 173.5090942  -9.1685352  72.2767715 174.5411835  -9.0101881
  73.6584320 173.5394745  -8.9571342  72.5030060 173.0153809 -10.6108894
  73.2373123 171.9233856 -11.0962620  73.0098953 171.9103241 -12.4188375
  73.3575516 171.1230927 -13.0713720  72.2047653 172.9035187 -12.7892742
  71.8547134 173.0023193 -13.7315063  71.8984680 173.6763916 -11.6749754
  71.3224945 174.5872040 -11.6036482  70.3965607 172.7342834  -8.1676445
  69.7925110 173.4929657  -7.3720860  69.7438049 171.9994659  -9.0415487
  70.2591476 171.4337921  -9.7007456  68.2526855 171.9013672  -9.1490564
  67.8361206 172.8989410  -9.2884607  68.0116959 171.3498077 -10.0577974
  67.6299820 171.2587891  -7.9367366  68.3279572 170.5161133  -7.2266631
  66.3511505 171.5506897  -7.6196084  65.7777863 172.1582184  -8.1872883
  65.5718231 171.0610046  -6.4207549  66.1539459 170.3549194  -5.8285670
  65.3019562 172.3052826  -5.5122190  64.6598892 173.0173492  -6.0306826
  64.8670044 171.9401245  -4.5818543  66.5423813 173.1213379  -5.0937238
  66.9644318 173.4580841  -6.0406003  66.2775955 173.9549103  -4.4432287
  67.6186752 172.2340240  -4.3540053  67.1197281 171.6916046  -3.5509255
  68.0099945 171.5497894  -5.1068625  68.7795181 172.9768219  -3.8694036
  69.6715012 172.6742401  -4.2339549  68.7248230 173.8738861  -2.8913693
  67.7203598 174.2457733  -2.1640429  66.7789764 173.9370422  -2.3604789
  67.8187943 174.9416046  -1.4386200  69.8218918 174.5487823  -2.5943148
  70.6790543 174.4990387  -3.1262019  69.8957520 175.1967773  -1.8231102
  64.1901855 170.3824921  -6.6579738  63.4233246 170.7906952  -7.4804468
  63.8125496 169.3727570  -5.8838372  64.4029617 169.1105347  -5.1074638
  62.5032883 168.7332764  -5.8328938  61.9578400 168.9376221  -6.7542109
  62.6788445 167.1757202  -5.8507171  63.2785683 166.8267822  -5.0100765
  61.3503075 166.4231567  -5.7334042  60.6575966 166.5630798  -6.5632668
  61.6016350 165.3700256  -5.6075821  60.8641472 166.6298676  -4.7799768
  63.2727509 166.7700348  -7.0717449  62.8119736 165.9369965  -7.1955481
  61.7275810 169.1791229  -4.5502396  62.1143532 168.7558594  -3.4586151
  60.5861664 169.8957977  -4.7501054  60.3607712 170.2471466  -5.6698046
  59.5330086 170.0195770  -3.7642126  59.7652969 169.3210754  -2.9603176
  59.6355629 171.3870544  -3.0661163  59.5721283 172.1021423  -3.8863120
  58.7211075 171.6457825  -2.5323238  60.8130531 171.6591492  -2.2504630
  61.6971283 171.4243469  -2.8432355  60.9270744 173.1613770  -1.9143074
  60.0759773 173.3978271  -1.2757000  61.8512726 173.2582550  -1.3445939
  60.9339371 173.8798676  -2.7339454  60.9481125 170.8662109  -0.9326985
  61.0759430 169.8256226  -1.2309518  61.8266869 171.2467041  -0.4117085
  60.0816231 171.0116425  -0.2876066  58.1698608 169.7589111  -4.4721026
  57.8316574 170.5866089  -5.3516288  57.6254959 168.6037445  -4.1562829
  58.0883865 168.1392517  -3.3881214  56.2249031 168.1339264  -4.4237318
  56.1184807 168.0987091  -5.5079522  56.0760460 166.7400665  -3.7998893
  56.0750275 166.7583466  -2.7100432  55.0966301 166.3602905  -4.0907631
  57.0159531 165.6907043  -4.2969871  58.1397972 165.3343048  -3.5652516
  58.8005104 164.4058228  -4.3300443  59.6778145 163.8672485  -4.0034308
  58.2150383 164.2884521  -5.5325937  58.4323158 163.5386353  -6.1734347
  57.0991745 165.1786499  -5.5284677  56.4056320 165.2447815  -6.3537107
  55.2753754 169.1129303  -3.8292265  55.5247002 169.8413239  -2.8175752
  54.0260582 169.1404724  -4.3696632  53.7875404 168.5053864  -5.1179166
  52.9474525 169.9205475  -3.9057982  53.2857437 170.9562836  -3.8755419
  51.6838112 169.8724823  -4.8241177  51.4611435 168.8421783  -5.1016026
  50.8256149 170.2643890  -4.2782245  52.0027504 170.7621765  -6.0293140
  52.0230598 172.0160370  -5.8586702  52.0732803 170.2235870  -7.1767430
  52.5325317 169.6018982  -2.4394565  52.4695778 168.4415131  -2.0040638
  52.1167946 170.6267853  -1.6545440  52.0750504 171.5225372  -2.1192973
  51.5889168 170.3293915  -0.3698869  52.3445358 169.7918091   0.2029498
  51.4154968 171.6267090   0.3946798  50.6208382 172.2031555  -0.0789471
  51.0254745 171.3719330   1.3801121  52.7662697 172.3545532   0.6339107
  53.7233887 171.7605133   1.1935605  52.8266640 173.5283051   0.2583680
  50.2602463 169.5135956  -0.3897483  49.4066124 169.7010651  -1.2697134
  50.2351151 168.5588684   0.5358745  51.0188980 168.4978333   1.1699551
  49.3495369 167.4030914   0.6387658  49.7512627 166.7318573   1.3978150
  47.8948860 167.9213257   1.0229034  47.6331100 168.7018890   0.3085580
  47.0718498 167.2076569   0.9855670  47.8833466 168.4883423   2.4592202
  48.4663773 167.8341370   3.3730102  47.3319359 169.6075287   2.6331711
  49.2353668 166.4926453  -0.6164832  48.3339767 165.6820984  -0.7480294
  50.1307487 166.6812286  -1.5816497  50.8802376 167.3560181  -1.5265486
  50.0940742 165.7551270  -2.7010455  49.0707817 165.7246857  -3.0752680
  50.9076614 166.2632294  -3.9085484  50.6502686 165.6140137  -4.7454267
  50.5977478 167.2622223  -4.2152600  52.3193665 166.0911560  -3.8591704
  52.7464066 166.7401581  -3.2952149  50.5218430 164.2827606  -2.3049796
  51.3990746 164.1435242  -1.4392322  49.9397545 163.2539825  -2.8995025
  49.2231750 163.3843536  -3.5992310  50.1480789 161.8630219  -2.5716453
  50.5002251 161.8542328  -1.5401336  48.8095284 161.0199432  -2.7893634
  48.0504532 161.4671631  -2.1475608  48.4528961 160.9109344  -3.8135865
  48.9602165 159.2961731  -2.1034157  48.3590736 158.6360626  -3.0972896
  51.2193413 161.2651520  -3.4599648  51.1079063 161.3811493  -4.6603847
  52.2893829 160.7132721  -2.8698511  52.2486267 160.7661133  -1.8620580
  53.5202789 160.3078918  -3.5375466  53.3160973 160.1681976  -4.5991011
  54.5948792 161.3524017  -3.2291286  54.8059311 161.2654724  -2.1632946
  55.4980965 160.9954224  -3.7239714  54.3258629 162.8383484  -3.5667279
  53.4014206 163.1880951  -3.1071892  55.0373840 163.5592499  -3.1640728
  54.1149063 163.0126190  -5.0818634  54.3305626 162.1921997  -5.9417343
  53.5513649 164.1278381  -5.6026182  53.4199333 164.2694702  -6.5939660
  53.2348213 164.8855591  -5.0146203  53.8696365 158.9113617  -3.0987995
  53.4687309 158.5089264  -2.0387263  54.7592125 158.1986847  -3.8711784
  54.9689102 158.6182861  -4.7656426  55.4160843 156.9682770  -3.4825861
  55.1945114 156.8491821  -2.4220107  54.8107529 155.6688385  -4.1599517
  53.7551804 155.5919495  -3.8992658  54.8280716 155.8955078  -5.7091360
  55.8291588 156.1464996  -6.0597458  54.4586525 155.0143738  -6.2337718
  54.1136589 156.7015686  -5.8764100  55.4973831 154.3196716  -3.9253502
  55.2498970 153.9241486  -2.9402568  55.2208862 153.4794312  -4.5622520
  56.5723534 154.3833923  -4.0941229  56.9362144 157.0567474  -3.6730883
  57.4559975 157.5438690  -4.6824718  57.6842194 156.6172028  -2.6537571
  57.2789001 156.2185516  -1.8189576  59.1027985 156.9379272  -2.4648674
  59.5325050 157.1138611  -3.4510202  59.2549248 158.2631836  -1.6532712
  59.0757370 158.0028076  -0.6101053  60.7004318 158.9196014  -1.5904590
  61.0030746 159.3985443  -2.5216463  60.7961998 159.7106476  -0.8467128
  61.4220695 158.1303711  -1.3795896  58.2941818 159.4012146  -2.1422751
  58.4376450 159.4775085  -3.2200961  57.2711029 159.1562042  -1.8569964
  58.3596268 160.8796082  -1.5719106  59.1051903 161.4463196  -2.1296577
  57.4125557 161.3880310  -1.7526367  58.4963760 160.9040070  -0.4907978
  59.9379501 155.8372955  -1.8107135  59.5881271 155.2167511  -0.7898705
  61.1031227 155.5094604  -2.3999586  61.7301674 156.0795135  -3.6057746
  61.8694801 157.1586304  -3.5410314  61.0524292 155.8135223  -4.4169641
  63.0824852 155.4055481  -3.7825079  63.8745537 155.9645233  -3.2842462
  63.3012276 155.0820007  -4.8001385  62.9475021 154.1191864  -2.9911664
  63.8759499 153.7225647  -2.5803413  62.5125046 153.3776703  -3.6612725
  61.9429855 154.4628754  -1.8656883  61.2127304 153.6777649  -1.6696595
  62.7294769 154.9691467  -0.6061406  63.0923347 156.1165619  -0.4869497
  62.9530334 154.0173798   0.2680713  62.5560608 153.1093903   0.0729381
  63.7174263 154.0844727   1.4968226  64.0880585 155.1052856   1.5900215
  62.7615433 153.7348022   2.6915789  62.5131912 152.6736755   2.6704125
  63.5015335 153.8121338   4.0718527  63.6583328 154.8626709   4.3165393
  62.8519135 153.4195251   4.8541303  64.4635773 153.3005981   4.0415883
  61.5294151 154.5476837   2.9096255  60.8702965 154.4183960   2.0511665
  61.0137901 154.1332245   3.7759180  61.8068275 155.5882416   3.0780840
  64.8489990 153.0579071   1.3525507  64.5696640 151.8806152   1.0594797
  66.0824432 153.4885406   1.6348497  66.2966080 154.4551849   1.8344243
  67.1672440 152.5418854   1.7570422  67.2171402 151.9614868   0.8357697
  68.4623566 153.2798615   1.8305719  68.3463745 154.0226593   2.6198194
  69.2076263 152.5070343   2.0187538  68.9325790 154.0279999   0.5646054
  68.1056137 154.5868073   0.1264796  69.9897003 155.0707855   0.9112784
  70.8965607 154.7320862   1.4122642  70.2184067 155.5699768  -0.0303151
  69.5185013 155.7359161   1.6349235  69.6793747 153.0290222  -0.3605763
  69.0788422 152.1207886  -0.4114775  69.8967819 153.4544678  -1.3402909
  70.6299286 152.7252502   0.0779129  66.8745575 151.7016602   3.0646565
  66.7096252 152.2644196   4.1777921  66.8157272 150.3592377   2.9375734
  66.9821854 149.5778198   1.7686939  67.9943771 149.7409058   1.3985815
  66.1415634 149.7796783   1.1048374  67.0158768 148.1235809   2.1990156
  67.9991684 147.6976776   2.3986223  66.4892502 147.6124420   1.3930978
  66.2013855 148.1499786   3.5092621  66.5437775 147.3656158   4.1842856
  65.1403046 148.0506134   3.2804797  66.5291748 149.5143890   4.0852718
  65.6003342 149.9046783   4.5012231  67.6169510 149.5548706   5.2272744
  67.2101364 149.3293304   6.3453183  68.8964386 149.7636414   4.9570103
  69.2474594 149.7734985   4.0100212  69.8887329 149.9463959   6.0703368
  69.5280609 149.3439941   6.9040704  71.2556763 149.4876404   5.6477976
  71.6616211 150.1459351   4.8797193  72.0008392 149.5954742   6.4359674
  71.3562775 148.0311127   5.2176352  70.8847198 147.5175781   4.0139742
  71.2151566 146.1763611   4.0331883  71.0886536 145.4526062   3.2416239
  71.7066193 145.9226227   5.2518916  71.8804474 144.9902344   5.5990815
  71.8920975 147.0408173   5.9649153  72.4132309 147.1473846   6.9048491
  69.8429413 151.3138733   6.7750916  70.7558136 151.5233002   7.6050134
  68.9042511 152.2663422   6.5586734  68.1939087 152.0841370   5.8641806
  68.8427277 153.5596466   7.2320271  69.8047256 153.9300385   7.5862346
  68.3928146 154.6187897   6.2150235  67.4677887 154.3027191   5.7328176
  68.1395340 155.9679108   6.9108825  69.1335602 156.2335663   7.2706733
  67.9310226 156.7499695   6.1808047  67.3639908 155.8775940   7.6714554
  69.4124832 154.7797852   5.0765615  69.4716415 153.8738708   4.4733143
  69.1632843 155.5867462   4.3874984  70.4187088 154.9122314   5.4741526
  67.8872223 153.4125366   8.4392862  66.7548828 153.1961823   8.2426310
  68.3907852 153.5502167   9.6865749  69.3890915 153.5133820   9.8353567
  67.5869522 153.3486938  10.8683758  66.6273422 152.9055786  10.6021118
  68.2878647 152.2702332  11.8253059  69.3109436 152.5888367  12.0250349
  67.7898941 152.2513885  12.7947226  68.2736053 150.9059296  11.1332626
  67.2564392 150.5147095  11.1535988  68.5270462 151.0828552  10.0880041
  69.3212967 149.5920410  11.8293476  69.8401260 148.8936768  10.2637529
  70.4150162 149.6311798   9.7036781  70.5256729 148.0807648  10.5031872
  68.9606857 148.4791260   9.7709675  67.2505493 154.6203918  11.6899395
  66.2977448 154.6127472  12.4764280  68.0823441 155.6528625  11.4781866
  68.7462234 155.6134949  10.7180481  67.8947449 156.9749298  12.0941448
  67.6661224 156.8068390  13.1465616  69.1795197 157.8528442  12.0169849
  68.9292145 158.7759247  12.5398283  70.3492508 157.3214264  12.9517288
  70.7428665 156.3372192  12.6977148  71.2797318 157.8887939  12.9716358
  70.0013046 157.1168823  13.9642467  69.6057358 158.1278534  10.5752277
  68.7244415 158.2799530   9.9521112  70.2449799 159.0105743  10.5587044
  70.1169662 157.2194672  10.2565269  66.6888046 157.7790833  11.5532093
  66.1479797 157.4914398  10.4768448  66.2082062 158.6885834  12.3328924
  66.6437225 158.6857147  13.2441654  65.2024384 159.6570587  11.9710102
  64.4977188 159.1268616  11.3304167  64.4134445 159.9762726  13.2534151
  64.0201492 159.0088043  13.5655107  65.0595169 160.3970337  14.0239105
  63.1462517 160.8430481  12.9081669  63.4162865 161.7060699  12.2995825
  62.4855309 160.2735291  12.2545567  62.1830864 161.4198151  14.3216553
  62.3772354 160.0654144  15.4890709  63.4384766 159.9152527  15.6873465
  61.8972664 160.3508453  16.4251575  61.8468857 159.2155762  15.0594244
  65.8152771 160.9510803  11.4437380  66.7612381 161.4228821  12.1034498
  65.4475250 161.4008179  10.2573462  64.6973572 160.9619446   9.7428265
  65.9259567 162.6431122   9.7206192  66.9087067 162.8675537  10.1352606
  66.2063217 162.5405884   8.1529522  66.6077576 161.5662994   7.8742194
  65.2640381 162.5415955   7.6050434  67.1012573 163.6131134   7.5507188
  66.6839523 164.5904694   7.7930288  68.4959946 163.4384003   8.0087566
  68.8474731 162.4172516   7.8610458  69.1203766 164.2136536   7.5646472
  68.5002747 163.5133057   9.0961771  67.0917358 163.4637299   6.0670013
  66.1101074 163.7353668   5.6787605  67.7995758 164.1496124   5.6015425
  67.2746353 162.4144440   5.8353810  64.9365845 163.7955322  10.0306349
  63.7452774 163.6477203   9.6420679  65.3361435 164.9666901  10.5153732
  66.3109283 165.0854645  10.7515669  64.4936981 166.2116241  10.6153173
  63.4486504 165.9033661  10.6463985  64.7493439 166.9615173  11.9336491
  65.8005142 167.2478027  11.9681168  63.9059296 168.2648468  12.0760689
  62.9477768 168.0364227  11.6092911  63.6858673 168.5042877  13.1164265
  64.4615784 169.0789948  11.6107626  64.4150848 166.0422363  13.0911989
  65.1281891 165.2207031  13.1595745  64.5103378 166.5581970  14.0466156
  63.0472298 165.4098053  13.1984768  62.8895607 164.5409546  12.5594454
  62.9680977 165.0522003  14.2251043  62.2014961 166.0712585  13.0105858
  64.7546921 167.0781097   9.4051981  65.8715286 167.0157166   8.8663149
  63.7702141 167.7375641   8.8230553  62.3475266 167.5920410   8.8937759
  62.0123863 167.9760284   9.8572741  62.0448570 166.5450592   8.8753729
  61.7659798 168.2642975   7.6310568  60.8085709 168.7575226   7.7989392
  61.5359306 167.4611053   6.9310098  62.7950974 169.2421570   7.2091084
  62.6819992 170.1994171   7.7179737  62.7208252 169.4158325   6.1356006
  64.1086426 168.6181488   7.6266952  64.4175186 167.9745636   6.8029852
  65.1666565 169.5965576   7.9531059  65.3943481 169.9609070   9.1340475
  65.9294968 170.0323792   6.9590621  65.7692795 169.6814728   6.0256290
  67.0951462 170.9217987   7.1902843  67.2059326 171.6228790   6.3630481
  66.7630081 171.5289764   8.0323801  68.3789520 170.2495728   7.5695043
  69.4656448 170.7421265   7.2282510  68.2617035 169.0198364   8.1040993
  67.3078690 168.7477875   8.2945862  69.3457947 168.1808624   8.6330967
  69.9934235 168.8485260   9.2013474  68.7686081 167.0830231   9.5817776
  68.1088181 167.5754089  10.2961617  68.2520065 166.3197632   8.9998274
  69.9368210 166.4384003  10.3138351  70.5166321 165.8467255   9.6054325
  70.6425095 167.1666107  10.7136211  69.3677444 165.5010376  11.3994789
  68.1533508 165.3002472  11.5945578  70.2588425 164.8212891  12.1562328
  70.1708832 164.1093903  12.8672533  71.2246170 164.8735504  11.8653030
  70.0888290 167.6324768   7.4295011  69.4905777 167.0277710   6.5373931
  71.4172363 167.6095734   7.5297022  71.8046722 168.1310577   8.3030281
  72.3720932 167.0428772   6.5268946  71.8059387 167.1708069   5.6042910
  73.7562103 167.7911987   6.4508395  74.1673813 167.6373596   7.4485211
  74.7647781 167.3081970   5.3943186  74.1989746 167.2255859   4.4663401
  75.6018219 168.0032501   5.3282585  75.1772537 166.3263855   5.6266956
  73.5960236 169.2064056   6.2856927  74.4237289 169.6911316   6.3250475
  72.4998322 165.5505981   6.8329811  72.4475021 165.1705017   8.0029278
  72.7579346 164.6115723   5.8780675  72.5480042 164.9055023   4.9348645
  72.8762436 163.1753693   6.0178299  73.0748138 163.0716705   7.0845633
  71.4515076 162.6276703   5.7278099  70.6925735 163.0595398   6.3801994
  71.1796722 162.8914032   4.7057285  71.3770828 161.0801392   5.8060732
  72.1208496 160.6625366   5.1274490  71.7925415 160.5027771   7.1631174
  71.1957321 160.9773560   7.9420285  71.5579758 159.4412537   7.2421870
  72.8583679 160.6266479   7.3548532  69.9775467 160.5727234   5.3891358
  69.6559296 160.9981079   4.4384975  69.9759216 159.4950867   5.2253814
  69.2143097 160.9138641   6.0885549  74.0080719 162.5829010   5.0336199
  73.7475586 162.4491272   3.8258870  75.1572342 162.3153534   5.5013790
  75.5884094 162.6371307   6.8695397  74.9931335 162.1922607   7.6669326
  75.5780487 163.7239380   6.9522538  77.0875015 162.1483307   6.9765749
  77.1671371 161.1975098   7.5035505  77.7127914 162.8826752   7.4843721
  77.5626297 162.0190887   5.5672460  78.2987366 161.2406616   5.3665028
  77.9349060 162.9349670   5.1082606  76.2492676 161.6712494   4.7858038
  76.3439713 162.0055695   3.7526727  75.9514465 160.1880798   4.7686214
  75.4400864 159.6558380   5.7541304  76.2178268 159.4783630   3.6983135
  76.5841446 159.9075165   2.8606143  76.1302948 157.9993286   3.6203620
  76.1280899 157.5467224   4.6119523  74.6838913 157.6426544   3.1005909
  74.7819519 158.1249237   2.1280146  74.5845261 156.5621643   2.9967794
  73.3836136 158.1305084   3.7835855  73.4576721 159.2094116   3.9199824
  72.1556778 157.8314819   2.8878763  72.1934586 156.8015289   2.5330513
  71.3124084 157.9769287   3.5630300  72.0975113 158.5161591   2.0417466
  73.1936111 157.2859802   5.0530677  73.9798431 157.5205841   5.7706370
  72.2056046 157.4621429   5.4784026  73.2677917 156.2255707   4.8119669
  77.1878281 157.3914337   2.7295208  77.7010498 158.0172577   1.7768321
  77.5342484 156.0943909   3.0051308  77.2531967 155.8028564   3.9303970
  78.3128967 155.2167511   2.1263752  78.3460159 155.6680450   1.1347439
  79.7350616 155.0707245   2.7489247  80.2303619 156.0404968   2.7005234
  79.5645218 154.7371674   3.7725286  80.6789017 154.0588379   2.0772479
  80.2125397 153.0763550   2.1502368  80.7797623 154.2943726   1.0177854
  82.1079941 154.0645752   2.5544536  82.5658798 155.0747986   3.0998945
  82.8600159 152.9946747   2.2798052  83.8521652 153.0379028   2.4638486
  82.4363022 152.1310272   1.9720887  77.4975739 153.9237213   1.9177145
  77.1446915 153.2342682   2.8830190  77.2187119 153.5292358   0.6429241
  77.5351257 154.1256104  -0.1082967  76.3406830 152.4637299   0.3325520
  75.9866562 151.9220123   1.2096637  75.0651932 152.9308472  -0.4360726
  75.3170624 153.1709290  -1.4690408  74.4332428 152.0457001  -0.5086558
  74.2445450 154.1478882   0.0715739  74.9092407 155.0115356   0.0517732
  73.0779877 154.5424652  -0.8760943  72.3641052 153.7527771  -1.1103426
  72.5293884 155.3959045  -0.4776358  73.6124115 154.7897034  -1.7933543
  73.6512604 153.9334564   1.4637613  74.5189667 153.6635742   2.0657301
  73.3004227 154.8731995   1.8902421  73.0596848 153.0195007   1.5170345
  77.1940002 151.4945679  -0.5042432  77.6280899 151.8145447  -1.6264895
  77.4446335 150.2844543   0.0672962  77.2290573 150.2031097   1.0506682
  78.2498703 149.1908112  -0.4794877  78.7213440 149.5070190  -1.4099867
  79.3443375 148.8239594   0.5874477  79.9667816 147.9805908   0.2884682
  80.0443573 149.6327209   0.7971600  78.7812119 148.4207458   2.0262299
  78.3943863 149.4046783   2.9454396  78.5728836 150.4351349   2.6758242
  77.6510544 149.0115204   4.0987945  77.2474136 149.8055267   4.7095609
  77.5471344 147.6750793   4.4293990  77.0830841 147.3531647   5.3499627
  77.9803619 146.6965179   3.5218925  77.6322556 145.7044220   3.7688496
  78.4935913 147.0952606   2.3037634  78.6856308 146.3030548   1.5952785
  77.3685608 147.8901672  -0.8568718  77.8620377 147.0563354  -1.6122036
  76.1569748 147.7618408  -0.3108498  75.9039459 148.3587036   0.4636437
  75.2232742 146.6591492  -0.6045850  75.7866898 145.7348633  -0.4767145
  74.1415634 146.4959412   0.4938695  73.7400436 147.4757233   0.7525449
  73.2986298 145.9315643   0.0950672  74.6925659 145.7377930   1.6825610
  74.8992081 144.3255310   1.5685636  75.0513458 143.9115906   2.8527515
  75.3204346 142.8984070   3.1124878  75.0290070 144.9917297   3.6854806
  75.1384735 145.0511932   4.6877685  74.6102371 146.0939941   2.9742351
  74.2004013 147.0144501   3.3630869  74.6445770 146.7575531  -2.0684533
  74.3826828 147.9036255  -2.4674947  74.5423737 145.6051025  -2.8542278
  74.5548248 144.2187347  -2.3819237  74.0958023 144.0509644  -1.4076304
  75.5902481 143.8794403  -2.3522086  73.8571167 143.3381348  -3.4647686
  72.8050308 143.2282104  -3.2018254  74.4726334 142.4388428  -3.4418480
  73.9932785 144.2210693  -4.7345228  73.1833115 144.1336212  -5.4586811
  74.8764420 143.9350128  -5.3057442  74.1710129 145.6967773  -4.2838888
  74.9453659 146.0984802  -4.9374299  72.9145508 146.5202637  -4.5015607
  72.8443604 147.4218750  -5.3679061  71.8265457 146.2632446  -3.7777267
  71.8907471 145.4916992  -3.1291125  70.4636078 146.8713074  -3.9101124
  70.2871552 146.8036652  -4.9836054  69.3665695 146.0410004  -3.0957966
  68.3828888 146.3338165  -3.4628546  69.4375687 145.0009613  -3.4141803
  69.2893143 146.0738068  -1.5719148  69.5045700 147.1164856  -1.3383013
  68.3154144 145.7536469  -1.2016183  70.3774261 145.2203827  -0.8584803
  71.4630661 144.9779816  -1.3250914  70.0346527 144.7237396   0.3207140
  70.6784058 144.1045074   0.7921246  69.0870514 144.8762665   0.6351946
  70.5780869 148.3305664  -3.5369041  69.9324265 149.1708984  -4.1472774
  71.3648834 148.7099152  -2.5079854  71.9346695 148.0636444  -1.9809318
  71.5065689 150.1259003  -2.1372292  70.5352859 150.6014709  -2.0010300
  72.2743301 150.2885895  -0.8362600  73.2689438 149.8442078  -0.8732297
  72.3319473 151.3704224  -0.7160940  71.5216599 149.8092499   0.4233735
  70.4776382 150.1217499   0.4449346  71.5025482 148.7197876   0.3950586
  72.2294769 150.2848053   1.6935984  73.4073792 149.9409332   1.8657135
  71.5960541 150.9869232   2.5030370  72.2103348 150.9540558  -3.2067420
  71.8367615 152.0659180  -3.4458048  73.1943893 150.3838348  -3.8855178
  73.5696030 149.5055542  -3.5569911  73.8896866 150.9634399  -5.0543575
  74.3072586 151.9323578  -4.7805910  75.0381393 150.0325928  -5.5601902
  74.7528152 148.9814301  -5.6019588  75.6164932 150.5036163  -6.8962760
  75.7944565 151.5786591  -6.8693500  76.5591202 150.0142059  -7.1412687
  74.9585342 150.2807465  -7.7362337  76.1567993 150.1925812  -4.3966069
  75.8718491 149.8488159  -3.4022601  77.0492477 149.6263123  -4.6630230
  76.4500732 151.2379913  -4.3007431  72.8468552 151.1606293  -6.2243505
  72.6693573 152.2652588  -6.6900668  72.1482086 150.0954895  -6.6377339
  72.3208771 149.2249146  -6.1556735  71.1655350 150.0488892  -7.7125335
  71.6645966 150.3743896  -8.6252661  70.6013641 148.6545715  -7.9362540
  71.4506760 147.9773407  -8.0264034  70.1400604 148.2779388  -7.0233245
  69.8956070 148.6104126  -9.1796083  69.2724991 147.8811035  -9.2176218
  70.0872345 151.1056976  -7.5348496  69.8825531 151.9769135  -8.3748951
  69.4310455 151.1359558  -6.3751764  69.6303940 150.4443665  -5.6666136
  68.3565979 152.0805054  -6.1316562  67.5393066 151.9343719  -6.8379064
  67.8110580 151.8278656  -4.7487578  67.6473007 150.7503052  -4.7365365
  68.4810791 152.1388702  -3.9472256  66.3988647 152.4107056  -4.4530387
  65.7005539 151.9781952  -5.1695538  66.1336899 152.0398407  -3.4629703
  66.2529526 154.2078705  -4.4766288  67.1750565 154.7073364  -3.0815456
  68.2169571 154.3884277  -3.1107152  67.1005249 155.7898712  -2.9783850
  66.6872101 154.2010193  -2.2486312  68.8194275 153.5619202  -6.2922087
  68.2828445 154.3251953  -7.0911217  69.8828506 154.0261230  -5.6176004
  70.4283218 153.3418884  -5.1132374  70.3605347 155.3919830  -5.8122139
  69.4646683 155.9938507  -5.6596537  71.4467087 155.8081665  -4.8340287
  71.7700653 156.8334808  -5.0136456  70.9685440 155.7607422  -3.4047019
  70.7989883 154.7096710  -3.1710305  71.6323318 156.3078918  -2.7352865
  69.9835587 156.2259827  -3.3666553  72.6961288 154.9294739  -5.0172582
  73.1055222 155.0704041  -6.0175724  73.4553909 155.2170868  -4.2899971
  72.5256119 153.8630219  -4.8699174  70.7975922 155.7281342  -7.2321558
  70.5840149 156.8820038  -7.6871920  71.3987808 154.7745972  -7.9358549
  71.4977341 153.8607483  -7.5172949  71.8939743 154.9494781  -9.3663025
  72.4644241 155.8769531  -9.4162588  72.7440186 153.7408142  -9.8460560
  73.5294495 153.6230774  -9.0995054  72.0955276 152.8731537  -9.9673815
  73.4805756 154.0377808 -11.1123819  72.9261627 154.5417328 -11.9040680
  74.2641068 154.7567444 -10.8730898  74.1839981 152.7985992 -11.7123718
  73.4328537 152.0140228 -11.8036060  74.4873810 153.0431671 -12.7303352
  75.3971481 152.4255829 -10.9066839  75.9453888 153.1789551 -10.5168848
  75.9942474 151.2449188 -10.8228350  75.5823288 150.2115021 -11.4836893
  74.8049088 150.4282379 -12.0909357  76.2448044 149.4556274 -11.5829678
  77.0898666 151.1414032 -10.1399698  77.5120926 152.0119171  -9.8500767
  77.5020828 150.2199249 -10.1071434  70.6391449 155.2558289 -10.2402287
  70.5680084 156.3030548 -10.8773241  69.6203842 154.4494324 -10.0901203
  69.7954559 153.6936951  -9.4433479  68.3733673 154.4010773 -10.8408146
  68.4983292 154.4335785 -11.9231396  67.6238785 153.0057373 -10.4899426
  67.3974457 153.0448761  -9.4244394  66.6514816 152.9529114 -10.9795876
  68.3844910 151.7133026 -10.8874359  69.3821411 151.6631165 -11.5996017
  67.9697037 150.5179443 -10.4378023  68.5697556 149.7266083 -10.6217709
  67.1412582 150.4092712  -9.8703728  67.4143524 155.5494385 -10.5421886
  66.6002960 155.8935394 -11.4368448  67.5399857 156.1731873  -9.3610859
  68.1011124 155.6945648  -8.6710424  66.8749008 157.4511871  -8.9749432
  65.8475037 157.4874573  -9.3372002  66.6963501 157.4393616  -7.4191489
  66.0956726 156.5657043  -7.1661386  67.6823502 157.3249054  -6.9688215
  66.1401367 158.6335602  -6.6739163  66.7816772 159.4799500  -6.9191828
  64.7350998 159.0034332  -7.2000799  64.0876389 158.1388702  -7.0536728
  64.2586288 159.8151245  -6.6503339  64.8890381 159.2955017  -8.2388773
  66.1795273 158.3506317  -5.1954126  67.2025375 158.3413544  -4.8192716
  65.7241821 159.1734772  -4.6443462  65.5749817 157.4770355  -4.9515514
  67.6576691 158.6743469  -9.5225315  66.9835663 159.6290588  -9.9166393
  69.0183868 158.7092590  -9.5086937  69.4498825 157.8714600  -9.1453619
  69.8594131 159.9193878  -9.7136097  69.4523315 160.6927032  -9.0621758
  71.3222275 159.6839752  -9.2508221  71.3549805 158.9107666  -8.4832430
  72.3566589 159.2783356 -10.3784924  72.4059296 160.1570435 -11.0215607
  73.3365173 159.1333466  -9.9235706  71.9660797 158.4351196 -10.9481716
  72.0286865 160.8506165  -8.5023975  73.0802994 160.5964508  -8.3697090
  71.9569168 161.7892151  -9.0519257  71.5168991 161.0005951  -7.0850215
  71.9467926 160.2647552  -6.4054503  71.9275970 161.9613800  -6.7746835
  70.4347000 160.8737335  -7.0558705  69.7924271 160.4642944 -11.1490259
  70.0243530 161.6570129 -11.3245125  69.4228745 159.6851807 -12.1381540
  69.4837341 158.6924896 -11.9622097  69.1325684 160.1585236 -13.5096970
  69.9584198 160.8148499 -13.7841206  69.1322327 158.9564972 -14.4874458
  68.6962814 158.1190796 -13.9426603  68.4400406 159.1545715 -15.3058214
  70.4675293 158.6092834 -15.1155729  70.2837524 157.7311096 -15.7345610
  70.6807709 159.4157562 -15.8171625  71.6227798 158.5018311 -14.1441097
  72.4713516 159.3733368 -13.9990387  71.7609863 157.4517059 -13.4219847
  72.5480957 157.4459381 -12.7891073  71.1455307 156.6790619 -13.6325550
  67.7678070 160.9399414 -13.5792847  67.4606018 161.6388550 -14.5583248
  66.9553833 160.7864990 -12.5205555  67.3833542 160.2636108 -11.7698660
  65.6458817 161.4193573 -12.2500448  65.5010223 162.1483154 -13.0473757
  64.4072495 160.5543060 -12.5493231  63.5545158 161.2156219 -12.3956833
  64.4366684 160.2549591 -13.5970001  64.3842239 159.2455750 -11.6908159
  65.2448349 158.6476135 -11.9906416  64.4696960 159.5883636 -10.6596584
  63.0352287 158.5509644 -11.8981037  62.8322258 157.8883972 -11.0567369
  62.1888962 159.2378540 -11.8993235  62.9294777 157.7169800 -13.2098370
  62.6673126 158.3034668 -14.0904112  63.8641167 157.1618500 -13.2897739
  61.7782631 156.7059021 -13.0985327  60.8921661 157.1886749 -13.1416035
  61.8298492 156.0645599 -13.8770666  61.8263969 156.1098633 -12.2845736
  65.5641174 162.3263702 -11.0020809  66.4159927 163.2263336 -10.9044676
  64.5667953 162.1492615 -10.1779280  64.0238266 161.3193512 -10.3690729
  64.1549225 162.9899750  -9.0405273  64.0975723 163.9770355  -9.4993343
  62.8215981 162.5364990  -8.4530067  62.4421196 161.7374420  -9.0898657
  63.0100822 162.1005249  -7.4719381  61.7082558 163.6056519  -8.4164820
  61.9911423 164.7509155  -8.3236246  60.5291061 163.3025055  -8.5765486
  65.1500397 163.1466370  -7.8571267  64.9326019 164.0580597  -7.0151539
  66.1919861 162.3034821  -7.6991801  66.3505096 161.6545258  -8.4566889
  67.1205750 162.3250122  -6.5600948  67.8005905 161.4778748  -6.6497936
  68.0736389 163.5342865  -6.4748859  67.4952621 164.4562225  -6.4148169
  68.6380310 163.4700317  -5.5446024  68.9454346 163.4714966  -7.7888041
  69.5027390 162.5359039  -7.8354583  68.3704605 163.4602051  -8.7147551
  70.0140610 164.5075531  -8.0127544  70.7012329 164.5282745  -7.1669011
  70.6253510 164.1375275  -8.8358631  69.4405212 165.8480377  -8.3831959
  69.4665833 166.0254364  -9.3771524  68.9928360 166.7055054  -7.5469289
  69.1531754 166.6978912  -6.2269449  69.6131897 165.9738312  -5.6938224
  68.7063522 167.4282684  -5.6912265  68.2938309 167.7527771  -7.9654026
  68.0273743 167.8171844  -8.9374886  67.9772186 168.4410095  -7.2974262
  66.4998169 162.1570129  -5.0959406  67.2429123 161.8464813  -4.1560335
  65.2065582 162.4209442  -4.8322420  64.7711258 162.8835449  -5.6174154
  64.5052948 162.1989899  -3.5708358  65.1598663 162.6176605  -2.8064082
  63.1867447 162.9971771  -3.4570258  62.5457993 162.6410217  -2.6505153
  63.3964539 164.4871368  -3.3047693  63.7455025 164.9095001  -4.2470455
  62.3622742 164.8302917  -3.3334312  63.9137001 164.7226410  -2.3746645
  62.4527855 162.8218842  -4.6551948  61.9710999 161.9942780  -4.7234378
  64.2891159 160.7151337  -3.2054775  63.5435524 159.9571381  -3.8070524
  64.8729782 160.2687531  -2.0817831  65.4751129 160.9455261  -1.6351316
  64.4339371 159.0691071  -1.3501867  63.6613388 158.4997253  -1.8669111
  65.6989059 158.1614532  -1.2959470  65.3853912 157.1692047  -0.9715028
  66.1458206 158.0764008  -2.2864671  66.6481705 158.5261078  -0.1992051
  67.7835388 159.3850861  -0.4830043  67.7716293 159.7833862  -1.4868047
  68.7740250 159.5966644   0.4439824  69.6760559 160.0946655   0.1203389
  68.6828156 159.0157471   1.7606312  69.4897766 159.1018372   2.4732385
  67.5470505 158.2090912   2.0645211  67.5787277 157.6092987   2.9621058
  66.5993881 157.9208832   1.0824608  65.8545456 157.1936035   1.3699859
  63.7380028 159.5261230  -0.0789224  63.4724693 160.7006683   0.1316969
  63.3082542 158.5511322   0.7452323  63.5097618 157.6147156   0.4248587
  62.8101730 158.8386993   2.0718131  63.0092087 159.8766174   2.3386757
  61.2749405 158.6453400   2.0861189  61.1097488 157.7312622   1.5157974
  60.7832260 158.4519348   3.0394845  60.8206596 159.4867249   1.5628535
  63.5910492 158.0873871   3.2043283  64.0906219 157.0071259   3.0986488
  63.4420052 158.7444000   4.3797641  63.0141754 159.6513062   4.5005040
  63.8435478 158.1443787   5.6867633  64.3158188 157.2040253   5.4024796
  64.9404221 159.0378876   6.3759832  64.5196686 160.0388641   6.4714775
  65.2472000 158.3537750   7.7812047  65.1454086 157.2685394   7.7782192
  66.2544250 158.5931549   8.1222353  64.5536728 158.7406769   8.5278082
  66.2060699 159.0624695   5.5020819  66.0567398 159.8263855   4.7390413
  67.0851212 159.4626617   6.0072742  66.4255829 158.0774841   5.0900960
  62.5984879 158.0632782   6.5541639  61.9867516 159.0908813   6.8216672
  62.1897583 156.8509064   7.0209084  62.7181320 156.0598297   6.6815977
  61.0555801 156.7057953   7.9742661  60.2716599 157.4433289   7.8021822
  60.4265251 155.3030243   7.8401847  61.1461983 154.5520782   8.1661196
  59.6123543 155.2680054   8.5640631  59.9255486 154.8397522   6.4253759
  60.6348572 155.0073090   5.6148753  59.5003052 153.3409119   6.4467731
  58.7684517 153.0215454   7.1887226  59.1610374 153.0296326   5.4587941
  60.3523483 152.6821442   6.6145725  58.7256508 155.6468658   5.9894562
  59.0246048 156.5811005   5.5141521  58.1453629 155.1039276   5.2434025
  58.0158958 155.7192841   6.8135362  61.4144440 156.9647369   9.4621105
  62.5361633 156.6496277   9.8697166  60.5025368 157.4834595  10.2475700
  59.5711555 157.7108917   9.9299297  60.6567726 157.6159668  11.6807156
  61.7111664 157.7085419  11.9410648  59.9161835 158.8167877  12.2311039
  58.8322868 158.7234192  12.1636190  60.2564621 158.8363800  13.2664433
  60.2556267 159.7335815  11.7490482  60.2117767 156.2940674  12.2939053
  59.0332413 156.0421448  12.6014223  61.1888847 155.3848724  12.3242311
  62.1540871 155.6298981  12.1555729  60.9252090 154.0356445  12.9022055
  60.0987930 153.6615143  12.2979088  62.1030998 153.1176605  12.6575298
  62.9687614 153.5602570  13.1503162  61.9274483 152.1916962  13.2051048
  62.3345108 152.7405548  11.2110519  61.3934135 151.8892517  10.4875565
  60.5432434 151.5306091  11.0487957  61.4584923 151.5947723   9.1096153
  60.7018738 151.0617218   8.5530348  62.5439758 152.1154938   8.4272404
  62.7148514 151.8745117   7.0640249  62.5558739 150.9505615   6.8575382
  63.5118027 152.8701477   9.0699120  64.3596802 153.2188110   8.4990015
  63.4252625 153.2122040  10.4704618  64.1612549 153.8485718  10.9392443
  60.4993248 154.0492401  14.3761282  61.3807297 154.1417236  15.2635374
  59.1997108 154.0195923  14.7073660  58.5275726 153.9607239  13.9557905
  58.5935173 154.0991821  16.0608921  59.1240273 154.8643036  16.6276817
  57.1177750 154.3748627  15.9361172  56.5747948 154.2215271  16.8687286
  56.9566956 155.3876190  15.5666809  56.6277580 153.4515381  14.9094477
  55.7006798 153.2149506  14.9878492  58.8220596 152.7630920  16.8278999
  58.9328232 152.7596130  18.0538616  59.0634003 151.6444702  16.1094227
  58.9907684 151.8184509  15.1171761  59.6612015 150.3540192  16.5554600
  60.2936058 150.5251770  17.4265976  58.4934921 149.5259399  17.0917206
  58.0720673 150.0232849  17.9653053  57.7385902 149.3739319  16.3202839
  58.9489365 148.1404266  17.3828526  59.7828026 147.4528656  16.7276917
  58.5138702 147.5270233  18.4222336  58.8572807 146.5971375  18.6158524
  57.7092400 147.9483337  18.8640232  60.6032104 149.8167114  15.4318371
  60.1088753 149.2344360  14.4616060  61.8988876 149.9740906  15.5940733
  62.2155380 150.1781006  16.5312004  62.8476219 149.6510315  14.5505428
  62.4588470 149.8718109  13.5564566  64.0495453 150.6232758  14.7528391
  63.6919785 151.6467590  14.8656063  64.8237610 150.2336884  16.0576801
  65.1360550 149.1904755  16.0097675  65.7352524 150.8194580  16.1766205
  64.1960831 150.3645935  16.9391460  65.0606003 150.5732269  13.5883055
  64.6514969 150.9943542  12.6699467  65.8338089 151.2737122  13.9038591
  65.5068817 149.6022797  13.3733549  63.1587830 148.1364594  14.4504957
  63.7917633 147.7319031  13.5246677  62.6955795 147.3349457  15.4451303
  62.0531845 147.7710724  16.0910740  62.8053703 145.8889008  15.4927759
  63.7313728 145.6415863  14.9736834  62.9841537 145.4893036  16.9578323
  63.7567101 146.1457062  17.3583317  62.0959320 145.6430511  17.5706348
  63.4693222 144.0388184  17.1242447  62.7118149 143.4706116  16.5844059
  64.5076752 143.9587097  16.8025150  63.5152359 143.6246338  18.6232338
  64.2117691 144.3038025  19.1148262  62.4955139 143.8047333  18.9635601
  63.8264885 142.1592407  18.8429928  64.7694931 141.9266815  19.1200428
  63.0066261 141.1288147  18.6986179  61.7302475 141.2489929  18.4352779
  61.2475052 142.1360016  18.4515858  61.1244850 140.4612885  18.2544899
  63.4366417 139.9019318  19.0163212  64.3765564 139.7286377  19.3428459
  62.7994156 139.1185150  18.9988804  61.6914978 145.1558075  14.6904211
  61.9382057 144.2077332  13.9573011  60.4346466 145.6139526  14.7435341
  60.2277069 146.3053589  15.4500971  59.3899918 145.3181458  13.7809916
  59.5636292 144.2989502  13.4357672  58.0053368 145.3087616  14.4590530
  57.9771729 146.2574615  14.9950361  57.2099342 145.3002472  13.7138290
  57.7887344 144.1913605  15.4829054  58.6781731 144.1841431  16.1129436
  56.9054260 144.2511444  16.1187439  57.7125053 142.8190155  14.7739773
  56.8709221 142.5577698  13.8437948  58.5587120 141.9184113  15.0648823
  59.3651772 146.1258240  12.4854565  58.7523956 145.7563629  11.5119562
  60.1197281 147.2509918  12.4847689  60.6015472 147.4034576  13.3592415
  60.1924095 148.3382568  11.5076160  60.8033676 149.1465454  11.9094963
  60.7942276 147.8262177  10.2081203  60.0868034 147.2497864   9.6119671
  61.0633888 148.6381683   9.5325642  62.0221329 146.9326324  10.3704414
  62.5971832 147.2553406  11.2383566  61.6690903 145.9166718  10.5473032
  62.9217987 147.0080872   9.0964613  63.6248779 146.1753387   9.1139746
  62.3203812 146.9015503   8.1936541  63.6093102 148.3045197   9.0624247
  63.1643600 149.0028381   9.6407452  64.7109222 148.5488739   8.3091793
  65.3425522 147.6770020   7.6065445  65.1065216 146.7080231   7.7661605
  66.0484543 147.9191132   6.9259677  65.2776642 149.7372131   8.3023615
  64.9481354 150.5422058   8.8156891  66.1630096 149.7291565   7.8163505
  58.8347626 149.0550385  11.2446508  58.3645020 149.2705994  10.1031284
  58.1028404 149.2656708  12.2622013  58.4767189 148.9794922  13.1557455
  56.9433670 150.1428070  12.3157225  56.3081169 149.8153839  11.4927130
  56.0778084 149.9875031  13.6394663  56.6313553 150.3128204  14.5202932
  55.2437630 150.6530151  13.4168329  55.6018600 148.5635681  13.9341288
  55.3117371 148.0687866  13.0072374  56.3961029 147.9558411  14.3676577
  54.4697800 148.5484619  14.9434919  54.7308846 148.7407227  16.1785660
  53.3128471 148.2849426  14.4672213  57.3781128 151.5924835  12.1140518
  58.3431282 152.0702057  12.7555962  56.5838089 152.3729095  11.2893353
  55.7939987 151.9608917  10.8133717  56.6571312 153.8722229  11.2940617
  56.9119530 154.3140411  12.2573662  57.8068199 154.2516785  10.3656883
  57.6537666 153.8406219   9.3678370  57.8951797 155.3351440  10.2857428
  58.7553329 153.9202423  10.7882509  55.3665009 154.5702820  10.8113537
  54.6313972 153.9956207  10.0272465  55.0359459 155.7241211  11.3408642
  55.6188240 156.1528625  12.0455236  53.8168907 156.4202423  10.9161959
  53.2434578 155.7999878  10.2273188  52.9729042 156.7534790  12.1687546
  53.6335297 157.3144531  12.8298063  52.0227203 157.2589874  11.9963865
  52.5912743 155.5123444  12.9758778  51.6250687 154.5237274  12.5515451
  51.6474991 153.5616608  13.5036278  51.0780373 152.6481323  13.4166031
  52.3602638 153.9344940  14.5271721  52.5158081 153.3372498  15.3266802
  52.9405098 155.1430206  14.2278080  53.5152245 155.7598572  14.9027996
  54.0631943 157.6760559  10.0355835  53.2064629 158.0691223   9.2113276
  55.2317848 158.3424530  10.1895027  55.7688179 158.1674957  11.0268145
  55.6961403 159.4868011   9.3942747  55.1322517 159.5206757   8.4620819
  55.4831390 160.7478943  10.2914686  56.1725388 160.6523743  11.1303377
  55.7489891 161.7028198   9.8380995  54.0652618 161.0412292  10.7961512
  53.3133698 162.0901031  10.1383505  53.6431389 162.5930328   9.2412939
  52.0527725 162.3996429  10.6905890  51.4873734 163.1996613  10.2359695
  51.6062088 161.8167725  11.8958549  50.6355782 162.0042114  12.3307610
  52.3841705 160.7787018  12.5193434  52.0028267 160.2843781  13.4006042
  53.6274986 160.4392700  11.9872704  54.2988129 159.7661285  12.4997177
  57.1733856 159.4359894   8.9893913  57.8794632 158.4615021   9.2522135
  57.6978264 160.4970856   8.3664227  57.0583725 161.2650146   8.2198420
  59.0944252 160.5285187   8.0056810  59.7069778 160.5439758   8.9071455
  59.4083862 159.6820526   7.3949122  59.4669380 161.8108215   7.2754703
  58.7265053 162.7933502   7.3033490  60.6200294 161.7598572   6.7438459
  61.0026321 160.8256073   6.7140031  61.3451500 162.8649445   6.0421586
  60.5073547 163.5447388   5.8869658  62.3637276 163.5383606   6.9586768
  62.9300842 162.7520905   7.4577894  63.3569946 164.4764252   6.2426057
  62.8764038 165.3462524   5.7947979  64.1396713 164.7612457   6.9457378
  63.8138390 163.9689636   5.3929701  61.6616325 164.3452606   7.8676705
  61.9649887 164.1372375   8.7544060  61.8467178 162.3960419   4.6170936
  62.5407753 161.4021759   4.4543891  61.5308380 163.1530914   3.5510907
  60.9253349 163.9379730   3.7445688  62.1435432 162.9270325   2.1844983
  62.2562561 161.8544464   2.0265398  61.3406181 163.5022278   0.9810075
  61.8513870 163.3454742   0.0309325  59.9483490 162.8984070   0.8211853
  59.3033600 163.4164276   1.5309355  59.5647659 162.9982300  -0.1941977
  59.9645729 161.8299866   1.0364033  61.2492943 164.8924103   1.1764718
  62.1350021 165.2615662   1.2055219  63.5549660 163.5018158   2.1840699
  63.7783051 164.6633606   2.4375088  64.5798569 162.7184448   1.8016788
  64.3683319 161.7357635   1.7031646  65.9528961 163.0811157   1.5962659
  66.1006622 164.0270691   2.1172652  66.8708115 162.0225677   2.2297516
  66.7664719 161.1099396   1.6429605  67.9272614 162.2618408   2.1082060
  66.5770416 161.8749390   3.2689824  66.2201462 163.3861542   0.0805254
  66.0589981 162.4488220  -0.7087589  66.6772461 164.6095734  -0.3017040
  66.8676453 165.3685913   0.3368488  67.1627884 164.8597565  -1.6986823
  66.7240372 164.0731354  -2.3125482  66.6562805 166.2563782  -2.2319233
  65.5853806 166.1873474  -2.4230144  66.7941818 167.0119019  -1.4584424
  67.3580933 166.7699890  -3.5480394  68.4184875 166.8636475  -3.3137541
  67.2110367 166.0341797  -4.3386497  66.8348465 168.0840607  -4.1152611
  65.7413406 168.5567627  -3.6931839  67.5093765 168.5099030  -5.0687871
  68.7054672 164.7127380  -1.6648670  69.3647308 165.1641235  -0.7596514
  69.2172089 163.9503326  -2.6389990  68.5414658 163.3997345  -3.1492088
  70.6881409 163.7306213  -2.7932036  71.1659546 163.7831421  -1.8149183
  71.1007996 162.3865967  -3.3992989  70.5390625 162.3467712  -4.3325548
  72.6549149 162.3868713  -3.7059128  73.2230301 162.4931641  -2.7817674
  72.9571762 161.4594116  -4.1922884  72.8849258 163.1617432  -4.4371824
  70.7564316 161.2075500  -2.5385444  71.3946457 161.1640778  -1.6559968
  69.7222137 161.2627106  -2.1987557  70.8983307 159.7980957  -3.1935921
  71.9148636 159.6209259  -3.5448356  70.7076874 159.0206757  -2.4537542
  70.1626129 159.7618561  -3.9970353  71.2984009 164.9766693  -3.4643989
  71.0928421 165.1375885  -4.7126288  72.1069031 165.7938995  -2.7156255
  72.2425919 165.7280426  -1.7169473  72.8235550 166.9668121  -3.2795074
  72.2690887 167.2432098  -4.1763201  72.8050766 168.2796478  -2.4074481
  73.0505600 169.1306305  -3.0428078  71.7778168 168.4243622  -2.0729229
  73.6679459 168.2722778  -1.1529316  74.8801346 169.0123749  -1.0399485
  75.1860733 169.6747894  -1.8361928  75.6629639 168.9593964   0.1454826
  76.5517120 169.5528717   0.3014776  75.2031784 168.1548309   1.1838404
  75.9227142 168.0756683   2.3121955  76.4037781 168.8825531   2.5099375
  73.9804993 167.4759521   1.0877770  73.6480942 166.8366852   1.8922997
  73.1644135 167.5566254  -0.0419365  72.2026443 167.0660400  -0.0687091
  74.2267075 166.7091675  -3.8433335  74.7446594 167.5900574  -4.5619311
  74.8999863 165.5896149  -3.4574728  74.4756775 165.1197968  -2.6704898
  76.2780685 165.1991425  -3.8880661  76.3270416 165.5911560  -4.9039521
  77.3662643 165.9611816  -3.0641773  77.3425293 165.8465424  -1.9804806
  78.3032074 165.5353088  -3.4231620  77.4969940 167.0195312  -3.2898047
  76.5227051 163.6936646  -4.0789523  76.0971603 162.8655701  -3.2588413
  77.2720261 163.2585907  -5.1163802  77.8477097 163.9268951  -5.6083655
  77.3450546 161.8691864  -5.5596933  77.1750870 161.2672729  -4.6669946
  76.1274490 161.6405029  -6.4585619  75.2724457 162.0256805  -5.9029469
  76.2319870 162.2362213  -7.3653631  75.8603210 160.2584229  -6.9335842
  74.8182983 159.4259338  -6.3772159  74.1872330 159.8307037  -5.5998259
  74.6898956 158.1261444  -6.9218383  73.8670273 157.4822693  -6.6485057
  75.5169601 157.6278992  -7.9532170  75.2404099 156.3844452  -8.5200377
  74.8594208 155.7975006  -7.8628111  76.4275360 158.5062408  -8.4962454
  77.0096359 158.1569061  -9.3362007  76.6122360 159.7991486  -8.0208006
  77.2542877 160.4351654  -8.6121225  78.7027435 161.4496002  -6.1994052
  79.2678146 162.2698364  -6.9344478  79.2327194 160.2840881  -5.8775492
  78.5803604 159.7597504  -5.3122239  80.4483643 159.6029816  -6.4190774
  80.6257324 159.8021088  -7.4759541  81.5915298 160.1505280  -5.5444179
  81.4035339 161.1553802  -5.1662531  81.6330719 159.5109711  -4.6627374
  82.9856491 160.1540222  -6.2289581  83.1093903 159.1976471  -6.7370272
  83.0780716 160.9414978  -6.9769220  84.0762329 160.2150879  -5.2139902
  83.7098846 160.8179321  -4.3830404  84.1566620 159.2242279  -4.7669916
  85.2612915 160.8832092  -5.7437272  85.1274948 161.8142853  -6.1115746
  86.4837875 160.4250183  -5.8759589  86.8243256 159.1961365  -5.5819960
  86.1513367 158.5646362  -5.1716371  87.7054138 158.8690186  -5.9518480
  87.4517365 161.2478790  -6.2333198  87.2557068 162.2272644  -6.3832889
  88.4240417 160.9763641  -6.2016792  80.4524612 158.0282898  -6.2995863
  79.8864288 157.4915314  -5.3422651  81.0221634 157.3233337  -7.2969055
  81.2937317 157.8899689  -8.0876417  81.0406952 155.8466797  -7.3704724
  80.6544418 155.2833099  -6.5210476  80.2348862 155.4302216  -8.6383734
  80.5514221 156.0533752  -9.4747868  80.4525452 154.4048462  -8.9372511
  78.7055664 155.6148224  -8.4469786  78.4535751 155.0604401  -7.5429492
  78.4784088 156.6684570  -8.2846766  77.9995346 155.0296478  -9.6996298
  77.4678574 153.8994141  -9.6415339  77.8574219 155.8224945 -10.6899576
  82.4944458 155.3924408  -7.5368505  83.2450790 155.9135742  -8.3728657
  82.7604370 154.3114319  -6.8114176  81.9921570 153.9404144  -6.2708831
  84.0414658 153.5928650  -6.6345525  84.7008209 153.9669189  -7.4177642
  84.7738571 154.0278473  -5.3802037  84.2874451 153.4770966  -4.5751038
  85.8478088 153.8507538  -5.4382319  84.8031235 155.5603638  -5.1765466
  85.2194443 155.9521027  -6.1046262  83.7962265 155.9684296  -5.0884995
  85.6928635 156.0795288  -4.0246739  86.6603928 155.3726196  -3.5939960
  85.5288467 157.2790833  -3.7024765  83.9924240 152.0503082  -6.9576287
  83.0232773 151.3695526  -6.5910363  85.0437927 151.4561310  -7.4947639
  85.8250351 151.9830017  -7.8583212  85.0877609 149.9959564  -7.6193719
  84.3296814 149.5382233  -6.9838367  84.9514389 149.6701965  -9.1346016
  83.9711456 150.0553589  -9.4152613  85.6932220 150.1756287  -9.7529936
  85.1235733 148.1995697  -9.4406214  86.0942383 147.7371063  -9.2615871
  84.4151535 147.5997467  -8.8692493  84.7722092 147.8769531 -10.9190798
  85.6131287 147.4188843 -11.7124243  83.4904861 148.0598907 -11.3544035
  83.3219376 147.8986053 -12.3370943  82.8394089 148.5422211 -10.7514477
  86.4273834 149.4955597  -6.9468246  87.5690918 149.7910309  -7.4393601
  86.3255844 148.7454224  -5.8251934  85.4039612 148.4392090  -5.5478249
  87.4767685 148.1789551  -5.1355495  88.2604141 147.8592529  -5.8224306
  88.0921860 149.1417847  -4.0789309  87.4121704 149.2210236  -3.2307599
  89.0036316 148.6639862  -3.7196612  88.5774460 150.5731506  -4.4834414
  89.3461151 150.5338745  -5.2552614  87.6907196 151.1156158  -4.8113708
  89.1531830 151.4717865  -3.4233942  88.7122803 151.4782410  -2.2518826
  90.0672150 152.2160187  -3.8558972  87.2236633 146.8004150  -4.4293623
  86.0804291 146.5498657  -4.1231236  88.2487717 145.9283142  -4.2439604
  89.1837463 146.2799225  -4.3932528  87.9934998 144.5727997  -3.6667845
  88.9242325 144.0175171  -3.7829936  87.5772705 144.7209930  -2.1376219
  86.5121536 144.9525909  -2.1369338  87.7215805 143.7292786  -1.7089074
  88.3984985 145.7185211  -1.3558062  89.7133179 145.3517914  -0.9372901
  90.0712204 144.3542175  -1.1450231  90.4817352 146.1777649  -0.1461599
  91.4461365 145.8666992   0.2274269  90.0379562 147.5222168   0.0147333
  90.9257202 148.3616180   0.6042516  91.7697525 147.9569092   0.8173733
  88.8218002 147.9667358  -0.4444540  88.4909744 148.9684448  -0.2130729
  87.9809036 147.0463715  -1.0978919  87.0233154 147.4190826  -1.4303367
  86.9365692 143.7117462  -4.4595280  86.2385178 142.8467255  -3.8885691
  86.7232819 144.0414124  -5.7782941  87.3578949 144.7325592  -6.1520367
  85.7351074 143.4232330  -6.6579652  85.9825134 143.7985687  -7.6509442
  85.8449554 142.3388062  -6.6651969  84.3149719 143.8510742  -6.4198251
  83.4208679 143.2245026  -7.0329480  84.0751419 144.8992310  -5.6172833
  84.8796463 145.4057465  -5.2762213  82.6934586 145.4252930  -5.3167114
  81.9989243 144.6473694  -5.6338391  82.4382782 145.5851898  -3.7822309
  81.3534927 145.5718689  -3.6765931  83.0718307 144.4340668  -3.0182018
  84.1544647 144.5563965  -2.9859035  82.7641449 144.4332733  -1.9725310
  82.8003540 143.5043793  -3.5182924  82.8720169 146.9437561  -3.2454548
  83.9110336 147.1375122  -3.5119057  82.3227921 147.7203674  -3.7777555
  82.7580795 147.2374573  -1.7601871  83.4108734 146.5684509  -1.1994781
  83.0515823 148.2552185  -1.5030835  81.7316895 147.1164093  -1.4138234
  82.4548111 146.7093201  -6.1328049  83.3205414 147.5387573  -6.2694931
  81.1945953 146.8634186  -6.6442890  80.5396576 146.1179504  -6.4560232
  80.6753311 148.2223663  -6.9035468  81.4706650 148.8165131  -7.3535900
  79.5851669 148.1113586  -7.9920821  78.6955490 147.6625671  -7.5501819
  79.2517853 149.1084442  -8.2797861  79.9021606 147.3126526  -9.2976599
  80.8403244 147.5633392  -9.7927380  79.9908600 146.2535400  -9.0557766
  78.8201218 147.5076141 -10.3699970  78.0833206 148.5245972 -10.3614502
  78.7020569 146.6365509 -11.2919502  80.1408386 148.9197693  -5.6066594
  79.4792023 148.2398529  -4.7924695  80.4596863 150.1759491  -5.3446627
  81.1818466 150.5950165  -5.9129744  79.9476242 150.9225922  -4.1477656
  78.9827499 150.4630432  -3.9334588  80.8334427 150.5425262  -2.9792731
  80.7661362 149.4898529  -2.7046332  82.3297501 150.8402710  -3.2649462
  82.4572296 151.8400726  -3.6799839  82.8701782 150.8146210  -2.3186994
  82.7714920 150.1786499  -4.0100789  80.4835510 151.2740631  -1.8242730
  81.0082321 151.0286713  -1.0587070  79.7785416 152.4538116  -4.3813066
  80.1706467 152.9376373  -5.4609499  79.1545410 153.2020721  -3.4840450
  78.8177338 152.7881317  -2.6265409  78.7554092 154.6514282  -3.7513609
  79.6133957 155.0651398  -4.2812724  77.4597549 154.6758575  -4.7023396
  77.6390152 154.0896301  -5.6036086  76.1734619 154.1747742  -3.9985576
  75.7969437 154.8594055  -3.2385535  75.3684082 154.1520691  -4.7330475
  76.3863754 153.2123871  -3.5331848  77.0308304 156.0064087  -5.1852431
  77.7857361 156.3477783  -5.8935428  76.0481262 155.9436798  -5.6526413
  76.7597351 156.6935425  -4.3837042  78.6737289 155.5285339  -2.5477543
  78.2895813 155.0641479  -1.4455348  79.1494522 156.7839050  -2.7064483
  79.6376877 156.9883423  -3.5666437  79.2498932 157.7466736  -1.5999546
  78.9665070 157.2963409  -0.6486455  80.6927795 158.1326752  -1.5765852
  81.0417633 158.4213104  -2.5680487  80.8461380 159.0416870  -0.9949659
  81.5883484 156.9548187  -1.0637614  81.2673950 156.5792084  -0.0921656
  81.5381851 156.0603333  -1.6846334  83.0408325 157.4956818  -0.8391319
  83.2776108 158.2938232  -1.5427012  83.0660934 158.0659637   0.0894407
  84.2236023 156.4919434  -0.8444631  83.8972397 155.6971283  -0.1737546
  84.4057693 156.0958405  -1.8434687  85.5136108 157.1368256  -0.5829011
  85.4621735 157.6053314   0.3103820  86.1194916 156.3557129  -0.3758192
  85.8086243 157.6831055  -1.3795533  78.2929230 158.9619598  -1.9082578
  78.4027939 159.6429749  -2.9241443  77.3669968 159.2413330  -0.9971445
  77.2962494 158.7102051  -0.1409899  76.2922058 160.2108612  -1.2327522
  76.6672897 160.7976990  -2.0712321  74.9228668 159.6832123  -1.6548274
  74.3564072 160.5662689  -1.9505358  74.9848785 158.8297119  -2.9264982
  75.1981735 157.7806702  -2.7212493  73.9936905 158.7454224  -3.3720713
  75.7473679 159.1984558  -3.6126070  74.0524826 158.9038239  -0.5365276
  73.7165375 159.6258698   0.2077090  73.1374283 158.5574799  -1.0169711
  74.5876236 158.0216522  -0.1850692  76.1413956 161.1141815  -0.0201188
  76.1415482 160.6611328   1.1021683  75.8492050 162.3915863  -0.3321915
  75.8588104 162.6552124  -1.3071325  75.3798981 163.2985687   0.7371443
  75.3374329 162.7685242   1.6886438  76.3951950 164.5100250   0.8221806
  76.5877457 164.8740692  -0.1870216  75.8109283 165.2464294   1.3739432
  77.6441879 164.1276245   1.5803369  77.4747849 164.2225342   2.6529026
  77.8387146 163.0771637   1.3640890  78.9200363 164.8831024   1.2636160
  79.7544479 164.4650421   1.8267113  79.2549286 164.6634064   0.2498664
  78.8610382 166.3665924   1.5224546  77.9628601 166.7653046   1.0508497
  78.7031097 166.4057312   2.6002431  80.0656815 167.0670776   1.0252459
  79.9772568 167.1543884   0.0229188  80.1223221 168.0066223   1.3915455
  80.9654236 166.6802368   1.2720455  73.9840393 163.7133636   0.4008571
  73.6475754 164.0641479  -0.7539356  73.1032333 163.8297882   1.4278191
  73.4531403 163.5103607   2.3198006  71.7181625 164.2583771   1.3534927
  71.5467682 164.7084351   0.3756551  70.8459930 162.9748840   1.3106533
  70.8330688 162.4449463   2.2630758  69.8242950 163.2806091   1.0853599
  71.2336044 162.2478790   0.5969719  71.2510071 165.2240143   2.3875735
  71.9881821 165.4913177   3.3147204  70.0359726 165.7965698   2.2186341
  69.7027512 165.6632233   1.2745574  69.5153122 166.8824768   3.0377460
  69.9218674 166.8011169   4.0458131  69.9633636 168.2659607   2.4491634
  71.0362549 168.3077850   2.2613926  69.3056793 168.6513977   1.1595176
  68.2478485 168.9050293   1.2285805  69.8316345 169.4637604   0.6579890
  69.3619156 167.8075409   0.4718775  69.6559753 169.4006500   3.5000463
  68.6288757 169.7035065   3.2964361  69.6687927 168.9763489   4.5039964
  70.5532608 170.6221008   3.4415588  70.5457764 171.0851440   2.4548259
  70.1217651 171.3730164   4.1034012  71.5207901 170.2509155   3.7795002
  68.0761795 166.7183685   3.0660920  67.3358154 166.4165039   2.1307170
  67.4635086 166.9379272   4.2271128  67.9899673 167.3214874   4.9990091
  66.0117416 166.7406464   4.3815994  65.6918182 165.8247833   3.8846803
  65.8879776 166.5917206   5.4542656  65.1541672 167.8646393   3.9073441
  65.2263565 169.0129852   4.4053063  64.3175430 167.6811829   2.8637798
  64.4268799 166.7826996   2.4155898  63.4380875 168.6631165   2.1722553
  63.8791313 169.6597595   2.1887705  63.3904457 168.2742004   0.7322200
  63.1735344 167.2062836   0.7077563  62.6796379 168.8429871   0.1327737
  64.7070312 168.3955841  -0.1083705  65.5858154 168.2424316   0.5180404
  64.6207504 167.6832275  -0.9288637  64.9995728 169.7331696  -0.7931893
  65.8782578 169.5393066  -1.4083495  64.1532440 169.9363098  -1.4493575
  65.2139664 170.8847504   0.1469547  64.3571243 171.2440796   0.5429373
  66.3399887 171.4569855   0.5843972  67.5151062 171.2406769   0.0289541
  67.5918198 170.6237793  -0.7670702  68.2633514 171.8952026   0.2074056
  66.2722244 172.4345703   1.4669729  65.3992767 172.7048798   1.8970873
  67.1425095 172.8877716   1.7063812  62.0957298 168.8023376   2.8533766
  61.6968956 169.9152069   3.2134902  61.4231682 167.6454926   3.0753505
  61.8700409 166.7562866   2.9029961  59.9103012 167.5389709   3.3565631
  59.6131554 168.5410156   3.6659493  59.1137505 167.1427307   2.1085935
  59.3065033 166.0793762   1.9663208  58.0482407 167.2199097   2.3250098
  59.3645630 167.9195709   0.7966152  59.0813141 168.9694824   0.8709489
  60.4305534 167.9578400   0.5723440  58.6513405 167.2439117  -0.3481947
  57.7396698 167.8012390  -0.9086173  58.9808922 166.0120239  -0.7008050
  58.5128746 165.7557068  -1.5583403  59.8560982 165.6127319  -0.3930960
  59.6585388 166.5741272   4.5040126  60.3305664 165.5518188   4.5790224
  58.5803223 166.8115387   5.2935576  58.0518913 167.6434326   5.0726190
  58.0174751 165.7973785   6.1840577  58.7657814 165.0666351   6.4908891
  57.4311562 166.4778748   7.4205828  56.7420654 167.3061066   7.2553439
  56.8495941 165.7199554   7.9453979  58.5268326 166.9685211   8.3535261
  59.1428947 166.0917511   8.5531216  59.1775055 167.7221375   7.9099255
  57.9869003 167.4676971   9.6941824  57.4015427 166.6714172  10.1539583
  58.7663269 167.6821136  10.4253588  57.1439896 168.7095184   9.5864935
  57.4871292 169.4888000   9.0432930  55.9136162 168.8658752  10.0748787
  55.3372955 167.9248962  10.7650051  55.7942200 167.0720673  11.0548563
  54.5428772 168.2351990  11.3060331  55.3144341 170.0366669  10.0050764
  55.8749733 170.8283234   9.7236652  54.4535866 170.3267975  10.4465113
  56.8888588 165.0399017   5.3566427  56.1314888 165.6785583   4.5608602
  56.4817505 163.8742981   5.8537898  56.9580917 163.3746796   6.5910707
  55.2817001 163.2115784   5.3868489  54.5091743 163.9453735   5.1569891
  55.6134911 162.4511108   4.0941715  54.6815987 162.0460968   3.6996536
  55.9829597 163.0838013   3.2871439  56.6800613 161.3268585   4.2114463
  56.4185448 160.1598053   4.9612908  55.4123650 159.9652710   5.3021116
  57.4119911 159.2276764   5.2749205  57.1865692 158.2977753   5.7757750
  58.6518135 159.3743896   4.7371464  59.3675766 158.5709686   4.8298764
  58.9208260 160.4143677   3.8245468  59.8879623 160.4613800   3.3461766
  57.9767990 161.4282227   3.6878335  58.2522392 162.3102264   3.1287224
  54.5584679 162.3453674   6.4739780  55.2135468 161.7908630   7.3469954
  53.2087593 162.0936737   6.2825828  52.7391815 162.6273193   5.5650730
  52.5036278 160.9092102   6.8238802  52.9578247 160.6851349   7.7890711
  51.0139275 161.2153015   6.9026370  50.8878860 162.2344360   7.2681103
  50.5452576 161.2403107   5.9188581  50.1725883 160.2608185   7.7769709
  50.3965721 159.2336731   7.4890146  50.5008354 160.5155792   8.7846661
  48.6572227 160.5023193   7.8061247  48.3135109 160.6793823   6.7870016
  48.2078972 159.5976562   8.2157621  48.0951424 161.6834717   8.6343489
  48.5859184 161.4941864   9.5890293  48.3729591 162.6535645   8.2222328
  46.6068306 161.6755371   8.7956648  46.2658081 160.7970581   9.1591053
  46.2770882 162.3765717   9.4436750  46.1577911 161.8496552   7.9078894
  52.6196938 159.6672668   5.9334812  52.5471878 159.8430023   4.6965556
  52.8761177 158.4441681   6.4600687  52.9357262 158.4288330   7.4681916
  52.8045769 157.1045074   5.8361492  53.2859116 157.2353516   4.8669758
  53.6701279 156.0964050   6.6363306  53.2924576 156.1021729   7.6587954
  53.5599747 154.7107544   6.0211029  53.9989128 154.7139587   5.0233936
  54.0768547 154.0795288   6.7439346  52.5029373 154.4514465   5.9616971
  55.1345787 156.5234070   6.6761012  55.2751503 157.5527496   7.0059714
  55.6852837 155.9572144   7.4272642  55.5882034 156.5555573   5.6855006
  51.3695526 156.6073456   5.6860857  50.6543236 156.3183289   6.6299219
  51.1064720 156.0942535   4.4695311  51.7909584 156.3215790   3.7624948
  49.9185867 155.3993225   4.0523090  49.1912193 155.5571899   4.8486223
  49.3947601 156.1060333   2.7964458  50.2957954 156.1135864   2.1831114
  48.6897049 155.3831482   2.3860319  48.8019905 157.5168762   2.8314257
  49.4926643 158.1124420   3.4283931  48.6095695 158.0201416   1.4448643
  47.8291016 157.4646454   0.9248665  48.3212090 159.0688934   1.3737570
  49.5274048 157.9747620   0.8586730  47.3862267 157.5207062   3.4798417
  47.6140366 157.3905487   4.5377989  46.8780670 158.4678345   3.2986925
  46.7781143 156.7750854   2.9676373  49.9786530 153.8546753   3.8886156
  49.1752052 153.1212311   4.4604669  51.0925751 153.4933929   3.2895961
  51.7966576 154.1870880   3.0818708  51.4217033 152.0637512   3.1219363
  51.2010193 151.4633179   4.0044851  50.5615082 151.5185852   1.9495690
  49.5382195 151.8675690   2.0881045  51.0276337 151.9936523   1.0863506
  50.4890900 150.0164032   1.6350598  51.4097137 149.5028229   1.9121752
  49.7299118 149.6095581   2.3030655  50.1577187 149.6209106   0.2018374
  49.4173546 150.3410645  -0.5101969  50.5269508 148.4945221  -0.2162716
  52.9528046 151.9461212   2.8810127  53.6544800 152.8447113   2.4593737
  53.4715271 150.7108917   3.2288327  52.8781738 149.9450073   3.5142348
  54.8587189 150.3288879   2.9156454  55.3441238 151.0576172   2.2664719
  55.8604660 150.2444305   4.0776205  55.5343018 149.4018402   4.6873469
  57.2736092 150.0098114   3.5196159  57.6848183 150.8532257   2.9649289
  57.9352722 149.9415436   4.3831220  57.3434410 149.0721130   2.9683108
  55.8870201 151.5393372   4.9353704  56.4420204 152.2700806   4.3470693
  54.8629875 151.8712769   5.1064796  56.5450935 151.3351135   6.2826571
  57.5732460 150.9739380   6.3060269  56.5766106 152.2675171   6.8463387
  55.9282112 150.6609497   6.8768454  54.7793083 149.0870361   2.0847600
  54.2044296 148.1023712   2.5842884  55.3420792 149.0642853   0.8787177
  55.7332077 149.9062958   0.4810565  55.5461578 147.8709259   0.0867731
  55.0436020 147.0010681   0.5097174  54.9537773 148.1452026  -1.3108647
  53.8907776 148.3519897  -1.1869003  55.4338264 149.0666351  -1.6404226
  55.0733948 146.9918365  -2.2851925  56.1259842 146.7741852  -2.4662623
  54.6285172 146.0631866  -1.9276741  54.2683601 147.2247772  -3.6107824
  53.2322388 147.1975250  -3.2734160  54.5428314 148.1704712  -4.0781693
  54.5297127 146.0150909  -4.5346379  54.8136330 145.1278229  -4.1444650
  54.4925919 146.0713806  -5.8621030  54.5543365 147.2461395  -6.4840636
  54.5727806 148.0961761  -5.9388976  54.8056107 147.2561951  -7.4622564
  54.5627174 144.9604034  -6.5494957  54.7389717 144.0586548  -6.1300988
  54.4930077 145.1524811  -7.5386081  57.0433998 147.5637054   0.0171197
  57.7607117 148.5322876  -0.0251206  57.4181557 146.3330231  -0.1495950
  56.6720543 145.6679688  -0.2950051  58.8464890 146.0339661  -0.4432010
  59.3778992 146.9856262  -0.4491448  59.5290909 145.2312317   0.6177353
  59.2216454 144.1854858   0.6215398  61.0338440 145.2495270   0.5122845
  61.4252930 146.2013397   0.8713332  61.5126991 144.4457855   1.0715617
  61.2599220 145.0901794  -0.5420367  59.1727219 145.8324432   1.8577760
  58.2687035 145.6476288   2.1227188  58.9306335 145.3685760  -1.7763778
  58.0807533 144.5450134  -2.1858177  59.9776955 145.7345428  -2.5397568
  60.6171188 146.4257507  -2.1744246  60.3102341 145.1066742  -3.8597376
  59.4617462 144.5932770  -4.3120608  60.8076477 146.1532898  -4.8924098
  61.6046982 146.7079620  -4.3972859  61.2873497 145.6000214  -5.6997981
  59.6557922 146.9530487  -5.4601412  58.8825340 146.3008728  -5.8661394
  59.1148338 147.3470764  -4.5997853  59.9271164 148.2148285  -6.2588177
  60.3005524 149.2556305  -5.7815480  59.6683273 148.1966553  -7.5543084
  59.8955650 149.0052643  -8.1152143  59.2598495 147.4392395  -8.0830612
  61.2927895 143.9065704  -3.6402519  61.9791718 143.8277435  -2.6041079
  61.3524933 143.0216522  -4.5993004  60.8316422 143.2804565  -5.4250331
  61.9788361 141.7303314  -4.5634866  61.4557228 141.1614380  -3.7948306
  61.8114929 141.0308838  -5.8418517  62.2469711 141.5784607  -6.6776872
  62.3430595 140.0804291  -5.7953691  60.4195976 140.7918854  -6.1190715
  60.2288666 140.1067047  -6.7638593  63.4483833 141.8680420  -4.2621193
  64.0664902 141.0679932  -3.6005285  64.1272964 142.8625336  -4.8455224
  63.6540680 143.4815369  -5.4881778  65.5165939 143.1537323  -4.5045528
  66.1598434 142.2819519  -4.6241674  65.9470520 144.1463776  -5.6068020
  67.0299911 144.0951080  -5.7195644  65.6934204 143.7050934  -6.5706668
  65.4286118 145.5486450  -5.4671063  64.6076431 145.8165741  -4.6219149
  66.0057297 146.4654388  -6.1135216  65.7379837 143.6904144  -3.0305135
  66.8484879 143.8060913  -2.5137591  64.6635208 143.9002075  -2.2801538
  63.7557793 143.9229736  -2.7224035  64.6596069 144.0715485  -0.7976394
  63.7588120 143.5808563  -0.4290136  65.5128860 143.5433655  -0.3721631
  64.6910324 145.4866791  -0.2813691  64.9085846 145.7098846   0.8913977
  64.5009003 146.4939423  -1.1473980  64.5060272 146.2979889  -2.1381986
  64.2811966 147.9236908  -0.7346013  64.7661667 148.0399323   0.2346213
  64.9562073 148.9671936  -1.6895458  64.9558792 149.9485321  -1.2151049
  66.4488602 148.6338959  -1.8896630  66.5231247 147.7466583  -2.5184681
  66.7939224 149.5628510  -2.3435960  67.0291519 148.4253387  -0.9908495
  64.2626801 149.0347137  -3.1077194  64.9730301 149.0806732  -3.9331810
  63.8241920 148.0491791  -3.2644801  63.2732620 150.1380463  -3.2199388
  63.7848892 151.0720062  -2.9874492  62.7820930 150.1701813  -4.1924715
  62.4120750 150.0007935  -2.5660112  62.7989845 148.2195587  -0.5283802
  61.9932556 147.6053772  -1.2457179  62.4656868 149.1624756   0.3813041
  63.1930885 149.6074829   0.9225578  61.1503754 149.4885864   0.7026367
  60.5466728 148.6910095   0.2696210  60.9589233 149.5980072   2.2158883
  61.3020935 150.5878143   2.5169115  59.8739471 149.5775604   2.3183980
  61.4545975 148.4152374   3.0609643  61.2465134 147.4879456   2.5271742
  62.5377235 148.3620911   3.1710422  60.8090324 148.2568359   4.4896894
  61.2578773 148.9118042   5.4662361  59.8326073 147.3802795   4.5525069
  59.3667946 147.2811890   5.4431820  59.6115303 146.7598724   3.7867918
  60.7028503 150.6883392  -0.0783767  61.5597305 151.5687866  -0.4990661
  59.3993988 150.7870636  -0.3411500  58.8169289 149.9992828  -0.0957361
  58.7373962 151.8954315  -0.9669875  59.4315109 152.7165222  -1.1462046
  58.2698936 151.4229889  -2.2898409  57.7289047 150.4778595  -2.2434597
  57.5135307 152.1196289  -2.6513817  59.3781624 151.2028046  -3.3113596
  60.3123856 150.8159332  -2.9043462  59.0290871 150.4216919  -3.9867144
  59.7193069 152.4209290  -4.1638041  59.2167091 153.5137329  -3.9543760
  60.4371529 152.2668762  -5.2684536  60.6142845 153.1020355  -5.8081169
  60.7220688 151.3399963  -5.5509806  57.5430641 152.3175659  -0.0608694
  56.5080299 151.5989227   0.0482141  57.6483040 153.5230865   0.4985862
  58.4698715 154.0889893   0.3408595  56.5291710 154.0523376   1.2608920
  55.9466057 153.3094025   1.8056612  57.1497955 155.0244751   2.2548432
  57.5693016 155.9074707   1.7727205  56.4475746 155.2941132   3.0436919
  58.0342140 154.5798187   2.7111228  55.6091843 154.7889862   0.2521478
  56.0479012 155.6915588  -0.4939886  54.3165359 154.5514832   0.4182462
  54.0322685 153.8227386   1.0571835  53.2546120 155.4853973  -0.0388114
  53.5194359 155.9663696  -0.9804268  52.0055542 154.8034821  -0.4242163
  51.5514336 154.2948914   0.4262026  51.2478409 155.5638580  -0.6134021
  52.0882492 153.8026123  -1.6409601  53.0673828 153.7122345  -2.1113100
  51.9679146 152.8157196  -1.1941249  51.0391388 154.2316437  -2.7058053
  50.0704155 154.0891113  -2.2268846  51.1254883 155.3006134  -2.9006469
  50.9479675 153.5205231  -4.1049914  50.2571907 154.1069489  -4.7108388
  51.9148254 153.5812683  -4.6045837  50.4778328 152.1078491  -4.0761523
  49.6441727 151.9631805  -3.5246203  50.2815819 151.8620605  -5.0359335
  51.2091866 151.5574341  -3.6492133  53.0723419 156.6046600   1.0102818
  52.8804588 156.2572174   2.2175460  53.1985664 157.8639374   0.6343310
  53.3631516 158.0273438  -0.3486805  53.0587120 158.9781036   1.5721236
  52.6399345 158.5469055   2.4814076  54.4696083 159.4739685   1.9501797
  54.4303398 160.0643158   2.8656321  55.4064865 158.3128510   2.2841713
  55.7652473 157.8177643   1.3817974  56.3043747 158.7439423   2.7269573
  54.9250793 157.6342010   2.9882891  55.1768036 160.2636108   0.8478861
  54.6966896 161.2220154   0.6502736  56.1814156 160.4671021   1.2186239
  55.2396126 159.6315460  -0.0379151  52.1547546 160.1569519   1.1491152
  51.8300781 160.2814178  -0.0345701  51.7340851 161.0637207   2.1196690
  51.9439583 160.6700134   3.0257871  51.1616364 162.4212036   1.9409978
  51.1389923 162.5566559   0.8596846  49.7271805 162.5185852   2.5408137
  49.0749702 161.7939911   2.0532925  49.6398315 162.4305725   3.6237407
  49.0763054 163.9250946   2.3137293  49.4775276 164.6511841   3.0207839
  49.2670097 164.2439728   1.2890025  47.5763283 163.9693451   2.4662476
  46.8016472 163.0303802   2.1946969  47.0578995 165.0924835   2.9703498
  46.0549202 165.1221008   3.0855224  47.6310577 165.8749847   3.2519200
  52.1369286 163.5427246   2.4711185  52.4561653 163.5484314   3.6859140
  52.5645294 164.5170288   1.6183525  52.2046432 164.4392090   0.6778617
  53.6127357 165.4979858   1.9519570  54.3460808 165.0455933   2.6195290
  54.2978058 166.0326080   0.6514452  53.6026649 165.9441681  -0.1834531
  54.7432137 167.5246124   0.7846180  55.6095772 167.5738373   1.4442286
  54.9423637 167.9465790  -0.2004597  53.9405975 168.1793976   1.1239829
  55.4960175 165.1833038   0.2728729  55.8823776 165.4638519  -0.7069809
  56.3044739 165.4123535   0.9671558  55.3573341 163.6698914   0.1769390
  54.6650467 163.3518219  -0.6025922  56.2739449 163.1104889  -0.0101513
  54.9545937 163.2727203   1.1086893  52.9763145 166.6252441   2.7935305
  51.9557304 167.2336121   2.4195235  53.5331917 166.9013977   3.9475019
  54.4269218 166.4775238   4.1516466  52.9615555 167.8124542   4.9241509
  51.8834000 167.8517303   4.7687669  53.2336693 167.1708374   6.2706084
  54.3074684 166.9835968   6.2688031  53.0245171 167.8704529   7.0798612
  52.5176964 165.8127594   6.5454483  52.7008591 165.1173248   5.7263541
  53.0114784 165.1833038   7.8770394  52.9365273 165.9050751   8.6903791
  52.3987961 164.3292236   8.1655931  54.0157166 164.7646332   7.8113117
  50.9921455 166.1183319   6.5313849  50.5787354 166.0777283   5.5236397
  50.4605827 165.4440613   7.2028732  50.8349686 167.0957947   6.9874115
  53.4607887 169.2418060   4.9483757  54.6535645 169.4445648   4.7420468
  52.5468330 170.2423401   5.1320090  51.0912056 170.2135925   5.0867100
  50.8278542 169.6038971   5.9510088  50.6826210 169.6896210   4.2226477
  50.5265198 171.6511841   5.1501436  50.2059364 171.8642578   6.1699095
  49.7069740 171.7353973   4.4364495  51.7523193 172.4565582   4.8080835
  51.6799355 173.4711914   5.1997013  51.8431053 172.5160522   3.7234976
  52.9699326 171.6117706   5.2191019  53.7815590 171.8557129   4.5336380
  53.3254128 171.9370270   6.6532173  52.7367439 171.5136261   7.6386733
  54.1532898 172.9043427   6.7852569  54.5297737 173.1547394   5.8821182
  54.3288918 173.8770905   7.8908668  54.4528770 173.3742065   8.8499479
  55.6019440 174.6842651   7.6384912  55.7423782 174.9827423   6.5996008
  55.5764885 175.5292511   8.3265705  56.7814331 173.7559662   7.8859177
  56.6642113 172.7583466   7.4626961  57.6338234 174.2926483   7.4693809
  57.0871620 173.6535187   9.4046040  57.5602798 174.6927490   9.9566221
  56.9005737 172.5238953   9.9570341  53.0702019 174.8252563   7.9476323
  52.6472549 175.4787140   6.9605255  52.3544579 174.7608643   9.0467196
  52.4972420 174.0681610   9.7677402  51.0837784 175.5888519   9.2026949
  50.5771179 175.6751404   8.2414722  50.0788078 174.9222870  10.1588650
  50.5207520 174.7816925  11.1452789  49.2282143 175.5893707  10.2988472
  49.4124107 173.6451874   9.6548500  49.0042610 173.7143250   8.6465178
  50.2449951 172.9650269   9.4751797  48.5043793 172.9686127  10.6880198
  48.3220367 171.9868927  10.2508879  48.9881401 172.8580627  11.6585112
  47.2138138 173.6664124  10.6986151  47.0093689 174.0593872   9.7909412
  46.2833862 173.7751617  11.6568651  46.4522896 173.2243652  12.8199177
  47.1584206 172.5169830  12.9651270  45.6578217 173.1803589  13.4419975
  45.2183304 174.4985962  11.5037918  45.2222214 174.9838867  10.6180210
  44.3822670 174.4704132  12.0697479  51.3820381 177.0448303   9.6452494
  51.1696396 177.4549713  10.7684879  51.8291779 177.8628082   8.6861258
  51.9963455 177.5040283   7.7569170  52.4934769 179.0877991   9.0556507
  53.1539993 179.0398102   9.9213896  53.4490356 179.5045471   7.8815699
  52.8328362 179.8773804   7.0634069  54.1820946 180.7915649   8.3158779
  54.9290161 180.5941620   9.0847960  54.5530968 181.2879639   7.4191856
  53.4652138 181.4393768   8.8203850  54.4820404 178.4228516   7.2846885
  53.8967056 177.7997131   6.6085348  55.2832794 178.9761505   6.7948079
  54.9343491 177.8559418   8.0983973  51.4727058 180.2409668   9.3495140
  50.7621002 180.7552032   8.4811029  51.3289566 180.5939026  10.6619158
  51.8553886 180.1235657  11.3842478  50.4166718 181.6055145  11.1983461
  49.4933319 181.4841614  10.6319408  50.0833626 181.2160187  12.6186237
  50.9486618 181.1598053  13.2790728  49.3871231 181.9639893  12.9979753
  49.3827896 179.8600616  12.9025383  50.0386543 179.0652618  12.5472603
  49.1456947 179.6831818  14.4578457  48.5731316 180.5452576  14.8000717
  48.5002975 178.8108826  14.5610361  50.0928345 179.5583496  14.9826698
  48.0228729 179.8141937  12.1561327  48.1654205 179.7806396  11.0760136
  47.7113266 178.7793274  12.2978735  47.4063263 180.6416016  12.5073595
  50.8281937 183.0776062  10.9555674  51.9546127 183.4753723  11.2527723
  49.8845215 183.9713898  10.5928679  48.4732361 183.6636810  10.2446623
  47.8980255 183.0467834  10.9350634  48.4896049 183.1873779   9.2643766
  47.7642746 185.0068359  10.1603069  47.3159065 185.2652588  11.1196213
  46.9805374 185.0085449   9.4027681  48.9366264 185.9283447   9.8535776
  48.6371002 186.9418945  10.1202297  49.1240005 185.8612213   8.7819033
  50.1388550 185.4128418  10.5714970  50.9835701 185.6376190   9.9203119
  50.2361488 185.9264984  12.0143652  49.9088097 185.2414398  12.9819918
  50.5081596 187.2272034  12.1338787  50.6125603 187.7207184  11.2588634
  50.5872917 187.9410858  13.4647017  51.3601265 187.4761658  14.0768089
  50.9604225 189.4234772  13.2492542  51.8670654 189.6225586  12.6778851
  50.1998978 189.9913788  12.7133646  51.0527725 190.0626373  14.4728718
  51.2934418 190.9823608  14.3394909  49.2473717 187.8544769  14.1660051
  48.1514702 188.0261688  13.6286297  49.3259621 187.5415344  15.4588642
  50.2387276 187.5086823  15.8900042  48.2484016 187.2950439  16.3624611
  47.7461929 186.3860016  16.0314846  48.7489014 187.0652161  17.7888565
  47.9983406 187.2986298  18.5440216  49.2152100 185.5970459  18.0390530
  50.0047760 185.3415985  17.3323402  49.6639938 185.5525055  19.0313816
  48.4244652 184.8684845  17.8601074  49.8481712 187.9623260  18.0928135
  50.3098259 187.6148987  18.8594742  47.2837524 188.4674377  16.4482059
  46.0892181 188.2491608  16.5603580  47.8614616 189.6618805  16.3343849
  48.8671227 189.6841583  16.2435551  47.1943703 190.9058228  16.4402103
  46.3097115 190.7985687  17.0678844  48.1392212 191.9919281  17.0920410
  48.9834213 192.2722168  16.4620647  47.5933647 192.9336395  17.1498795
  48.6290321 191.7670593  18.4878235  49.0398712 190.7574463  18.4845886
  49.4962883 192.3874664  18.7137890  47.4753914 191.9459381  19.8983498
  46.5525208 190.3526611  20.0043697  47.2771339 189.5741882  19.7656384
  46.1218452 190.3296204  21.0054131  45.7653847 190.2296600  19.2604637
  46.6967659 191.4062653  15.0815487  45.8677216 192.2875366  15.0638094
  47.1364975 190.8614807  13.8573208  47.8468857 190.1435394  13.8530846
  46.6707649 191.3932190  12.5418692  46.6386414 192.4813232  12.5973625
  47.6901588 191.0928802  11.3733406  47.4670982 191.6806335  10.4829006
  48.6357765 191.5810547  11.6091328  47.7984772 189.7345734  10.9791870
  48.1034355 189.6259766  10.0754118  45.2335205 190.9591064  12.2745352
  44.5770302 191.5252991  11.3932600  44.7102661 190.0827637  13.0656099
  45.3190155 189.4877777  13.6092291  43.2792358 189.6815643  13.2771864
  42.8751488 189.6922455  12.2649126  43.0828018 188.2791443  13.8132448
  43.8177872 188.1880798  14.6130009  42.0871696 188.0626068  14.2004480
  43.3246956 187.5144043  13.0751781  42.5025330 190.7352600  14.1291370
  41.3597908 190.4489136  14.5151348  43.1279831 191.8711243  14.5019541
  44.1090584 192.0474701  14.3391666  42.4126930 192.8546753  15.3793240
  41.4354820 192.9288025  14.9021873  42.3143539 192.2988892  16.7979240
  42.2685776 191.2199402  16.6499977  43.6015472 192.4935303  17.6846294
  43.6557846 193.5397339  17.9856453  43.4706497 192.0087128  18.6520576
  44.5673485 192.2255402  17.2562504  41.0139198 192.6580505  17.4895210
  40.1408768 192.1470032  17.0836754  41.0062103 192.3052673  18.5208206
  40.7965660 193.7243500  17.4273853  42.9642677 194.2708893  15.3917465
  42.2092972 195.1844788  15.6769962  44.2345734 194.4988251  14.9469700
  44.8048401 193.6982880  14.7145119  44.8110695 195.8421173  14.7839727
  44.4231186 196.5781403  15.4881382  46.3350525 195.7796936  15.0440111
  46.6439247 196.8209534  15.1360064  46.5873680 195.3854980  16.0284119
  47.2312279 195.1033173  14.0024176  47.4276466 194.1186981  14.4267435
  46.7677155 194.9816284  13.0234137  48.6277275 195.7101440  13.8695698
  49.2464867 196.1874695  14.8033953  49.2482224 195.4138336  12.7135029
  50.0747299 195.8783875  12.3654041  48.6595955 194.9344330  12.0473270
  44.4354744 196.4251862  13.4665232  45.2679405 197.0229950  12.7229519
  43.1830788 196.2336578  13.0543671  42.5895042 195.6902008  13.6646328
  42.4595146 196.9181213  11.9776173  43.1466179 197.0778656  11.1466637
  41.2975731 196.0160217  11.4699593  40.5280838 195.9197998  12.2359409
  40.7244453 196.5832367  10.7365475  41.7516975 194.6689758  10.8008270
  42.6587601 194.8840179  10.2359419  42.0555344 193.5657501  11.8215771
  41.3771095 193.4356537  12.6647320  42.1557007 192.6347961  11.2635508
  43.0360184 193.7813721  12.2461424  40.6364670 194.0992279   9.9565153
  40.3467484 194.8689117   9.2411556  40.8712120 193.2220917   9.3534966
  39.7695847 193.9342499  10.5963593  42.1645622 198.4091492  12.3794994
  40.9875526 198.7900696  12.4900627  43.2079277 199.1756592  12.7611446
  44.0966301 198.8292847  12.4289856  43.0289612 200.5638580  13.2753716
  42.1951904 200.9429474  12.6844244  42.6558075 200.5530853  14.7857828
  42.2907600 201.5354919  15.0852852  41.7740746 199.9132233  14.8210526
  43.7254486 199.9781494  15.7102652  44.2988739 199.1745148  15.2482367
  44.4745140 200.7314758  15.9541969  43.2067871 199.3977966  17.0857830
  43.7443199 198.4669952  17.6079750  42.1588936 199.8894043  17.6223183
  41.7659645 199.3426666  18.3751602  41.6602631 200.6144104  17.1265011
  44.2583580 201.3515015  12.9050798  45.2836914 200.7966003  12.5043488
  44.2516556 202.6851044  13.0058966  43.4396210 203.0752869  13.4624777
  45.3379402 203.6262360  12.6240110  45.4207649 203.6389008  11.5372353
  44.9584503 205.0032654  13.1068707  45.7884750 205.6694336  12.8715343
  44.0937119 205.3530426  12.5429726  44.8197365 204.9776154  14.5565319
  44.2245712 205.7117767  14.7250166  46.7622299 203.2175903  13.1166067
  47.7550926 203.6863403  12.5344658  46.8386841 202.5745850  14.2794809
  45.9663734 202.3588867  14.7406216  48.0276222 202.1768494  15.0528584
  48.6965370 203.0343475  15.1260862  47.6420364 201.7788696  16.4673882
  46.8078995 201.0908051  16.3299847  48.4463806 201.1527100  16.8534622
  47.3868370 202.8930054  17.4498901  48.1242371 203.6896820  17.3516254
  46.0313225 203.5105133  17.2351933  45.2184830 202.7843475  17.2435188
  45.7894096 204.2526550  17.9959774  46.1147842 204.0013580  16.2655582
  47.3753624 202.3000488  18.8902454  48.3236923 201.7793121  19.0229473
  47.2235565 203.0893402  19.6265011  46.5263519 201.6310883  19.0308590
  48.8566704 201.0530243  14.3708954  49.9144859 200.6865540  14.8512077
  48.3442268 200.4403076  13.3282480  47.4202309 200.7331085  13.0443439
  49.0427933 199.3345947  12.6283407  49.0759697 198.5582581  13.3927431
  48.1350288 198.7701874  11.5255404  48.6466064 197.8765411  11.1680775
  47.1981010 198.4916229  12.0078945  47.8809586 199.7757874  10.4771385
  46.9342003 199.8557587  10.3398285  50.4694252 199.6254578  12.0931597
  51.4033966 198.8363495  12.1843309  50.6403389 200.8456726  11.5548000
  49.8123589 201.4186096  11.4754496  51.9539413 201.4276733  11.0416183
  52.4574165 200.6634521  10.4495287  51.6637001 202.6564789  10.1530914
  52.4790230 202.8230286   9.4490929  50.8435898 202.3827362   9.4893255
  51.3185081 203.8928375  10.9334450  50.5423584 203.6311798  11.6526365
  52.1575432 204.2236633  11.5455503  50.8833313 205.0651703  10.0803204
  51.6126289 205.8363037   9.8321533  50.5593338 204.6590881   9.1220779
  49.6830978 205.5904236  10.7357864  48.9337807 204.9709473  11.0094194
  49.3970985 206.8441620  10.8297710  50.2059708 207.7974854  10.6889944
  51.1192818 207.6933594  10.2705173  49.9711838 208.7600708  10.8849421
  48.2263603 207.1193085  11.2184963  47.5346947 206.3928528  11.3366995
  48.0426445 208.0821838  11.4618158  53.0183372 201.7592468  12.0599365
  53.9791908 202.5099945  11.7508316  52.8111191 201.3053131  13.2804203
  51.9999733 200.7379913  13.4811220  53.8698196 201.4101105  14.2990999
  54.3050957 202.4064178  14.2216520  53.2101021 201.4411163  15.6343746
  52.6002922 200.5376892  15.6273966  53.8753014 201.3615875  16.4941902
  52.3075523 202.7119751  15.8129950  52.8522415 203.6460266  15.6752872
  51.5802498 202.7177277  15.0011473  51.6377792 202.7589569  17.1756001
  50.7968407 203.4508362  17.1283913  51.1841583 201.8111877  17.4655342
  52.4901619 203.2137909  18.2554226  53.3164597 203.6843262  17.9149303
  52.2300682 203.1704559  19.5353127  51.1498222 202.6793365  20.0398808
  50.3959274 202.2846222  19.4958725  50.9878769 202.6386414  21.0359840
  53.1431427 203.6166229  20.3663235  54.0667686 203.7737732  19.9890747
  52.8941841 203.6431732  21.3447990  55.0321274 200.3838959  14.0545073
  55.3290024 199.4971771  14.8301592  55.6481934 200.4847412  12.8522310
  55.3707161 201.2397003  12.2413578  56.5323524 199.4947662  12.2399235
  56.0147591 198.5590515  12.4512157  56.4719124 199.6338806  10.6850996
  55.4232941 199.6897278  10.3928986  57.0536575 200.4467621  10.2504959
  56.8825722 198.3848572   9.9038486  58.1613922 197.9254608   9.5932989
  58.0200272 196.7833099   8.8665619  58.7344093 196.1672363   8.3407135
  56.6878662 196.4808197   8.7586212  56.3559456 195.6875763   8.2288208
  55.9832344 197.5155487   9.3321981  54.9165955 197.6578827   9.2404251
  57.8370743 199.2942657  12.9522333  58.2624207 200.1130066  13.8284435
  58.5354233 198.2241211  12.6214056  58.2353592 197.7424164  11.7859259
  59.7127113 197.7109833  13.2994165  59.5567818 197.8646545  14.3672037
  59.8023872 196.1515808  13.1213522  60.6685104 195.7337036  13.6344919
  58.5090218 195.5049438  13.6372519  57.6079788 195.7433777  13.0721169
  58.7226677 194.4367065  13.6006413  58.4148827 195.7884369  14.6855221
  60.0034866 195.8584900  11.6194153  59.0494957 196.0340271  11.1222324
  60.7407608 196.5584259  11.2261896  60.5296021 194.4780884  11.2697840
  59.6707687 193.8108063  11.1973619  61.0225143 194.5199585  10.2985048
  61.2616539 194.0861816  11.9758987  61.0592232 198.4277802  12.9912271
  61.0939827 199.1818390  12.0285244  62.2273026 198.3140717  13.6808710
  62.8818359 198.9263458  13.2152367  62.8678322 197.2447052  14.5066347
  63.8221321 197.7123260  14.7489815  62.2017975 197.1065216  15.9296074
  61.2647133 196.5579071  15.8348131  62.8955765 196.5576630  16.5664234
  61.9034538 198.4565582  16.6389217  62.9011536 199.3613129  16.9688091
  63.9518242 199.1171875  17.0226002  62.6556702 200.6631012  17.4160748
  63.4513321 201.3513031  17.6604290  61.3483887 201.0820160  17.4716301
  61.1532745 202.0917511  17.8014660  60.2677879 200.1775360  17.2145672
  59.2214622 200.4157715  17.3364372  60.5596466 198.8301392  16.8558121
  59.7240334 198.1891327  16.6165276  63.2629166 195.9223633  13.7464619
  63.6898193 196.0146790  12.6237125  63.2137985 194.6643219  14.3072863
  62.4293671 194.1843872  15.4042444  61.4138222 194.5765076  15.3494291
  62.8188972 194.3038025  16.4152374  62.2739868 192.6410217  15.1768942
  61.4655571 192.3701630  14.4977942  62.0502396 192.1239777  16.1100140
  63.6552048 192.3715973  14.5416651  63.5227394 191.5924377  13.7910261
  64.3517761 192.0232239  15.3042393  64.3046417 193.7353973  14.0913639
  65.0598297 194.0635986  14.8055544  65.0598450 193.6803436  12.6907644
  64.4523010 193.4727478  11.6431684  66.3840332 193.5149078  12.6356583
  66.6433868 193.3676758  11.6706934  67.3984299 193.9603577  13.6123724
  68.3653564 193.9942474  13.1103773  67.6795654 192.8635712  14.7002096
  68.4248810 193.2163544  15.4130526  66.7527924 192.7083740  15.2525816
  68.0922623 191.6362000  14.0696373  68.9051971 191.7773590  13.5789089
  67.3188324 195.3587341  14.2870741  66.3879929 196.1066284  13.9942627
  68.3147964 195.7841492  15.0588398  69.1278000 195.2070770  15.2204180
  68.3366852 197.1593170  15.6094875  67.9186554 197.7494965  14.7939911
  67.2078323 197.3519135  16.6889496  66.4105911 196.7459717  16.2584286
  67.6189194 196.8498688  17.5647717  66.7923203 198.6968689  17.0047569
  67.2550354 198.9721985  17.7995415  69.6877975 197.8246155  16.0756359
  69.7127762 198.4232483  17.1376610  70.8217392 197.7590027  15.3902292
  71.5113068 198.3326721  15.8544493  71.3506241 196.9407043  14.2757244
  72.4042969 197.2024536  14.1789989  70.5546722 197.2489014  13.0135288
  69.6316147 196.6697388  13.0388441  70.2598724 198.2960663  12.9454565
  71.3967209 196.8371277  11.7288122  71.6261597 195.7840729  11.8917046
  70.7195129 196.9720917  10.8854475  72.7534866 197.5812073  11.4818916
  73.4188080 197.5408783  12.3443403  73.3337784 197.1327972  10.6754904
  72.4996185 199.0503998  11.2189465  71.7237244 199.4164734  11.8913193
  73.3833771 199.6498566  11.4373856  72.2296448 199.3002472   9.7744970
  71.3685455 198.8863373   9.4469509  72.2494278 200.2940826   9.5956078
  72.9729691 199.0244751   9.1487761  71.4754639 195.4561157  14.8081999
  70.6747894 194.5830078  14.4776058  72.4330978 195.1281891  15.7305622
  72.2510910 194.0853882  16.7388306  72.2381973 193.1114502  16.2495556
  71.3627625 194.2962799  17.3342228  73.3727417 194.0811157  17.6977291
  73.6726837 193.0838470  18.0196171  73.2622147 194.8198395  18.4915619
  74.4712601 194.6898346  16.7676735  75.2386551 195.2033539  17.3469028
  74.9346619 193.8614960  16.2317295  73.7945099 195.6607971  15.8030577
  74.2648163 195.5950623  14.8219395  73.9879532 197.0516663  16.4691238
  73.3145142 197.4352264  17.4269161  75.0485535 197.7280273  16.0549927
  75.5490952 197.2383881  15.3271208  75.7516632 198.8961487  16.6228867
  76.6090469 199.1225128  15.9890499  74.8324280 200.1155701  16.6062660
  74.5368881 200.2389679  15.5643826  73.9553299 199.7656708  17.1506615
  75.3793869 201.4721375  17.2338905  75.4858627 201.3463135  18.3113575
  76.3897858 201.7219391  16.9101791  74.5372543 202.6553192  16.8732605
  73.4749908 202.4238739  16.9514866  74.8597336 203.4938507  17.4905014
  74.6886292 203.0499268  15.4144316  75.7146454 202.8950958  15.0806503
  74.1002655 202.2772827  14.9195185  74.1084518 204.4260559  15.1697512
  74.3395767 205.1053009  15.8806009  74.3992538 204.7791901  14.2692900
  73.1134949 204.4235382  14.9960833  76.4680099 198.7311554  17.9586258
  77.5143585 199.3424683  18.2625980  76.0498199 197.7243805  18.7405910
  75.1392593 197.3916931  18.4572086  76.5613403 197.2941284  20.0441685
  77.3809280 197.9540558  20.3285713  75.5639114 197.4902496  21.1811619
  76.0668335 197.0933533  22.0630074  75.2975998 199.0013428  21.4201107
  74.5370026 199.4702911  20.7958641  74.9036102 199.0411377  22.4356327
  76.1711578 199.6501923  21.3568611  74.1723557 196.7574921  20.9987411
  74.3250351 195.7628937  20.5797329  73.6265869 196.7422791  21.9421387
  73.5289688 197.4157562  20.4149380  77.1805267 195.8772278  20.1262989
  77.8055954 195.5487671  21.1550541  77.2071915 195.0899353  19.0435371
  77.0415649 195.5412750  18.1553001  77.6061707 193.6968689  19.1301918
  77.4791946 193.2082672  18.1641407  79.1298676 193.4222107  19.3559570
  79.4537735 193.4061890  20.3965950  79.3250275 192.4445343  18.9153385
  80.1542664 194.2492218  18.6584606  80.9345779 195.1682129  19.3066063
  80.8667526 195.3522491  20.3686466  81.7167740 195.8215179  18.3767414
  82.3254166 196.6040344  18.5699158  81.6703720 195.1561890  17.1692829
  82.2597656 195.4266357  15.8745556  82.9956360 196.2116394  15.7813721
  81.8838654 194.6476440  14.7449284  82.4526138 194.7402954  13.8315048
  80.9792023 193.6076508  14.9272070  80.8734131 192.8709259  14.1446209
  80.3475266 193.3549957  16.1534538  79.6748886 192.5346069  16.3557510
  80.5698090 194.1844177  17.2609310  76.6804123 192.8311462  20.1028614
  75.4811783 192.8657837  19.8922577  77.2478561 192.1205902  21.0905991
  78.2479095 192.2614594  21.1031303  76.6968918 191.3854523  22.1901627
  77.6260681 191.0448303  22.6470032  75.8716660 190.0911407  21.7849083
  75.2629395 189.7906952  22.6377182  75.2118607 190.4117584  20.9787083
  76.9045868 189.0451050  21.4544086  76.4412155 188.3058929  20.8009777
  77.6975937 189.3684387  20.7801056  77.4921875 188.2997742  22.6918640
  77.4996262 188.7712250  23.7679806  77.9972992 187.0826721  22.4456196
  78.3562622 186.5264435  23.2084122  77.9408188 186.7312469  21.5004177
  76.0068054 192.1720886  23.3009148  75.3594894 193.2104797  23.1161098
  76.1735382 191.6254730  24.5162067  76.7489777 190.7962036  24.5519199
  75.8570557 192.0491638  25.8937225  75.2251282 191.2674255  26.3152008
  77.1777878 191.9696960  26.7146187  77.1804352 192.6193695  27.5898514
  77.3169174 190.9068146  26.9121590  78.4312439 192.5631561  26.0178547
  78.4562683 193.7584381  25.7141933  79.4028778 191.7955170  25.8353920
  75.1563416 193.4172821  26.2013187  75.4732666 194.4442902  25.6255817
  74.2428513 193.4290161  27.1918793  74.1996765 192.5290070  27.6481934
  73.5489655 194.5785675  27.7589512  72.6804047 194.2388916  28.3231583
  74.3609238 195.2491608  28.9530201  73.8402939 196.1334991  29.3204441
  74.4650879 194.5679474  29.7975292  75.8081207 195.6339111  28.6777515
  76.2957687 195.4316559  29.6313763  76.2800903 195.0542603  27.8844357
  76.0639038 197.1584473  28.3231659  75.2954941 197.7994537  28.7553406
  76.9603958 197.5040436  28.8379154  76.4283524 197.4253693  26.8911533
  75.8799667 198.0727386  26.3431702  77.5747147 197.2153473  26.3029461
  78.6131058 196.5310211  26.7941113  78.4368896 196.0318756  27.6542816
  79.2760239 196.0850525  26.1762619  77.6535721 197.7201691  25.0880775
  78.5128632 197.5896301  24.5736065  76.8914032 198.1779938  24.6089134
  72.8391342 195.4598846  26.7984905  72.4322815 194.8926849  25.7176971
  72.5901031 196.7061310  27.0318203  72.8521194 196.9333038  27.9804192
  71.8177109 197.7155151  26.3162212  71.8216248 198.6201935  26.9242001
  72.5389099 198.0091248  25.0173569  72.9184647 197.1127930  24.5268421
  71.8966446 198.5129395  24.2950268  73.4039612 198.6438446  25.2094860
  70.3196259 197.4299622  26.0048752  69.4033279 198.1723785  26.3622570
  70.0111618 196.4075470  25.2128410  70.7806396 195.9168243  24.7801628
  68.6405563 196.1165314  24.6885548  68.2322006 197.0906677  24.4194775
  68.7882538 195.3554230  23.3732758  67.7682266 195.1305542  23.0617065
  69.1662216 196.0724335  22.6444931  69.6537933 194.0977631  23.4323521
  69.1161346 192.8890839  23.9463406  68.2177277 192.8705444  24.5454540
  69.8226013 191.7217407  23.7810879  69.4677277 190.7969971  24.2115822
  70.9871216 191.7513428  22.9731941  71.5344315 190.8487701  22.7446747
  71.4845200 192.9696198  22.4152355  72.3428040 192.9402313  21.7603436
  70.7984467 194.1466370  22.6611881  71.0635452 195.1049500  22.2395554
  67.6179962 195.5685120  25.6437035  66.4985123 195.2009735  25.2778301
  67.9345627 195.5365753  26.9026928  68.8955917 195.7425232  27.1352940
  67.1023407 195.0719147  28.0049858  66.7949295 194.0331726  27.8841419
  67.9245911 195.2569122  29.2851524  68.2995224 196.2764435  29.3751240
  67.3500443 194.9526062  30.1600208  69.2558289 194.3551636  29.4114304
  68.9111633 193.4188232  29.8502445  69.6633835 194.1898956  28.4140854
  70.2723160 195.1604004  30.3253899  71.1754837 194.5546875  30.3995056
  70.5430679 196.1342468  29.9174576  69.7208786 195.3806000  31.6591396
  69.5017090 194.4772797  32.0542030  69.7136078 196.4851685  32.3280792
  70.0462112 197.6309509  31.8338985  70.3080139 197.7194061  30.8624363
  69.9333801 198.4863129  32.3589859  69.2450562 196.5345306  33.5720901
  68.7885056 195.7449036  34.0058556  69.1792908 197.3641815  34.1443253
  65.7539444 195.8013763  28.0548401  64.7434006 195.1540527  27.8699017
  65.7880554 197.1421509  28.3289871  66.7246933 197.5153809  28.3882408
  64.5365143 197.8901062  28.3569908  63.8894844 197.5214386  29.1529465
  64.9803314 199.3582611  28.7016735  65.8286896 199.7182159  28.1195736
  64.0864029 199.9394226  28.4752998  65.4268875 199.5223999  30.2154560
  64.6713638 199.0499115  30.8431778  66.2724838 198.8690643  30.4304066
  65.7209320 200.9251404  30.7592545  65.8427200 201.8542175  29.9888382
  65.9890671 201.0490875  32.0490646  66.2593079 201.9555206  32.4032593
  65.9604721 200.2153168  32.6183701  63.6960106 197.8466492  27.0498409
  62.4714813 198.0127869  27.0386715  64.3182068 197.6017456  25.8758125
  65.3278809 197.5814056  25.8916931  63.6700821 197.5050507  24.5770397
  62.9232712 198.2985077  24.5488167  64.6279297 197.6887512  23.4369812
  64.9972076 198.7116699  23.5104141  65.4343567 196.9676056  23.5700722
  63.9870033 197.4331207  22.0599365  63.3188667 198.3376160  21.2708302
  63.0310020 199.3197937  21.6155891  62.7958031 197.7082367  20.1707153
  62.3219948 198.2354584  19.4512405  63.1796837 196.3891296  20.0999832
  62.9013748 195.3466187  19.1814976  62.1685143 195.5300446  18.4096947
  63.5238037 194.1048279  19.3463440  63.3672600 193.3771362  18.5637989
  64.3170013 193.8866425  20.4901791  64.8235931 192.9450378  20.6423302
  64.6033325 194.8874664  21.4337978  65.1052322 194.6958313  22.3706932
  63.9971771 196.1918793  21.2992458  62.9003220 196.2120209  24.4344597
  61.8867836 196.2066040  23.8006821  63.2833862 195.1382294  25.1554508
  64.2260056 195.1491699  25.5180111  62.4651756 193.8919220  25.0615025
  62.2753296 193.8206482  23.9905319  63.2649727 192.6153564  25.4883957
  63.9427490 192.9662323  26.2665958  62.5386467 191.8899384  25.8549137
  63.8887405 192.0189514  24.3210564  65.2173843 191.9365234  24.0698700
  65.9723129 192.4105530  24.6796055  65.4490051 191.1875916  22.9342117
  66.3627319 191.0106659  22.5419159  64.2778244 190.7872009  22.3589306
  63.8996124 189.9672546  21.2579384  64.6393127 189.7724152  20.4955177
  62.5291901 189.5500183  21.1205559  62.2118225 188.8574982  20.3549995
  61.5968781 190.0070953  21.9598312  60.5777397 189.6944275  21.7866383
  61.9126511 190.7640991  23.1070709  61.1620407 190.9090118  23.8699493
  63.2526741 191.2250061  23.2554455  61.1288757 194.0038452  25.7715836
  60.1309433 193.4506836  25.2090073  61.0285378 194.8754578  26.8016148
  61.9060478 195.2141724  27.1695156  59.7422714 195.2958527  27.3749752
  59.1723709 194.3820648  27.5432034  59.9154549 195.9505615  28.7694988
  60.4840622 196.8730774  28.6522388  58.9354095 196.1648407  29.1957588
  60.6672821 195.0035553  29.7681122  60.1743317 194.0531158  29.9725151
  61.7180519 194.8449554  29.5255623  60.6379356 195.6494293  31.1770496
  60.7925415 196.8797302  31.3221989  60.6996803 194.8586426  32.2174606
  61.0115891 195.2476501  33.0958061  60.7045250 193.8490143  32.1908646
  58.9155540 196.1940155  26.4233112  57.7092209 195.9057617  26.2170105
  59.5539360 197.1606598  25.8722610  60.5088768 197.2232056  26.1951771
  59.0178490 198.2533417  25.0584087  58.3179855 198.8634949  25.6293831
  60.1039085 199.1938019  24.7217579  60.6921730 199.4070129  25.6142731
  60.7480621 198.7286224  23.9755821  59.6970291 200.5563812  24.0855026
  59.1269341 200.3702850  23.1753025  59.0878983 201.1292877  24.7846737
  60.9461823 201.3694458  23.6666260  61.6633644 201.3611145  24.4874058
  61.3976746 200.8890686  22.7985859  60.7027664 202.8778839  23.3534508
  61.6471519 203.3237152  23.0412598  59.9467926 203.0118561  22.5797195
  60.2894669 203.6995392  24.5160313  60.8800087 203.5528870  25.3221664
  60.3669701 204.6774902  24.2758121  59.3667526 203.4452972  24.8386078
  58.4206657 197.6774292  23.7787857  57.3602371 198.1251221  23.3378410
  59.0945282 196.6918793  23.1428204  59.9822464 196.4050140  23.5298157
  58.6067696 196.0434113  21.9236183  58.3182259 196.7678680  21.1620312
  59.7677307 195.3550110  21.3390636  60.5585327 196.0413513  21.0362682
  60.1332245 194.6179504  22.0540771  59.4895325 194.3601532  20.1777058
  59.2517624 194.8382111  18.8768883  59.2855568 195.8998260  18.6813564
  59.0942612 194.0090179  17.7664814  59.0921059 194.4233093  16.7691021
  58.9680099 192.5932159  17.9520226  58.6349411 191.7966003  16.9267654
  58.7135620 192.1623688  16.0426674  59.0819359 192.1073303  19.2587128
  58.9761391 191.0582123  19.4923344  59.3200226 192.9781189  20.3207626
  59.4039993 192.5290222  21.2993736  57.3833923 195.1027527  22.1609879
  56.3610115 195.3337402  21.5194283  57.4050674 194.2900543  23.2368221
  58.2602921 194.3146667  23.7735577  56.2158699 193.6097107  23.7039566
  55.9516792 192.8501129  22.9682159  56.6115227 192.7988434  24.9791164
  57.2162018 191.9507141  24.6579647  57.2485313 193.3978424  25.6299076
  55.4161720 192.2846527  25.8611774  54.7820587 193.1389923  26.0980434
  54.8057594 191.6013184  25.2707863  56.0230408 191.6436157  27.0849514
  55.8952827 190.4450378  27.1898918  56.4444122 192.4100494  28.0332928
  56.5700417 192.0333862  28.9619713  56.2906227 193.3998108  27.9035091
  55.0741920 194.5798340  24.0266495  53.9403839 194.2752380  23.5722828
  55.3054619 195.6301117  24.8256474  56.1871719 195.7007751  25.3131847
  54.2411575 196.7151947  25.0253601  53.3785248 196.1835938  25.4270573
  54.7481384 197.7508698  26.0790920  55.1685791 197.1324768  26.8721390
  55.5024261 198.4160614  25.6587486  53.6601257 198.6885681  26.6476002
  53.3529778 199.3127441  25.8084621  52.8326187 198.1798706  27.1421299
  54.2842293 199.6896515  27.6789494  54.6400223 199.1432495  28.5524235
  55.0923958 200.2868500  27.2566719  53.2600937 200.6538696  28.1871605
  53.2945023 201.4562988  27.4502506  52.2397003 200.2726898  28.2271347
  53.6100197 201.1458282  29.5506115  54.5718269 201.4523926  29.5181427
  53.0001526 201.8778839  29.8856869  53.6189613 200.4519806  30.2845039
  53.7455444 197.3795013  23.6991577  52.6639061 197.9327850  23.7253094
  54.5643959 197.4453735  22.5821342  55.5197639 197.1837463  22.7794113
  54.1613922 198.0666656  21.3281918  53.4870796 198.8934937  21.5512543
  55.4749374 198.6986847  20.7583580  55.8277397 199.2743378  21.6140823
  56.2517738 197.9659271  20.5399876  55.1239357 199.5278015  19.5327969
  54.7567863 198.8833008  18.7341042  54.2864990 200.1856842  19.7651615
  56.3213730 200.3753052  18.9520779  57.1144104 199.6919708  18.6483688
  55.9758606 200.9399109  18.0860863  56.7799187 201.3262482  19.9472733
  56.5556221 201.0759583  20.8997173  57.4298706 202.4568939  19.7779617
  58.0071259 202.7334900  18.6001167  57.8541565 202.1518707  17.7886887
  58.3276024 203.6661224  18.3819656  57.5127907 203.3663635  20.7582359
  57.0242577 203.3137207  21.6406555  58.2513657 204.0541992  20.7197475
  53.4500122 197.1596985  20.3395138  52.3774567 197.5734558  19.8113461
  54.0740623 195.9884186  20.1591206  54.9841042 195.7873688  20.5483627
  53.5913544 195.0167694  19.2114563  53.4437943 195.5221405  18.2570343
  54.7391548 194.0084229  18.9226818  55.6586838 194.5268707  18.6510353
  54.9912682 193.5350342  19.8716011  54.3508568 192.8868866  17.9497108
  53.6438942 192.1916809  18.4024773  53.8046989 193.2666626  17.0862331
  55.5855293 192.1302338  17.4322300  56.2950401 192.8659973  17.0536213
  56.0078697 191.5549622  18.2561283  55.2478600 191.0854492  16.3797169
  56.0615349 190.3606415  16.4058838  54.3211937 190.5721588  16.6364346
  55.2172508 191.6249847  14.9940720  56.1418648 191.9159088  14.7102509
  54.8912697 190.9219666  14.3463001  54.6270485 192.4429016  14.9412184
  52.3165131 194.3547974  19.6571198  51.5385208 193.8678589  18.8732815
  52.1303520 194.2761841  20.9714851  52.8852234 194.5363159  21.5900364
  50.9426155 193.6290588  21.6073284  50.3063087 193.3413086  20.7704201
  51.3764305 192.4202881  22.5282784  52.0525551 192.8112640  23.2886009
  50.4290390 192.0144806  22.8830509  52.0945549 191.4146271  21.6888084
  51.5066223 190.6234131  20.7014427  50.4306831 190.6232758  20.6078663
  52.2554626 189.7358093  19.8744354  51.8215256 189.0713959  19.1418705
  53.6302147 189.5878906  20.0937233  54.1954651 188.9405823  19.4396000
  54.2325974 190.3844757  21.0779476  55.3002815 190.4145355  21.2378025
  53.4847145 191.2908783  21.7554722  54.0174026 191.9199066  22.4532967
  50.0078354 194.6013794  22.3519592  49.2149582 194.1374512  23.1014862
  50.0556335 195.9168701  22.0805607  50.7575836 196.2200012  21.4206467
  49.1198997 196.9072723  22.6795979  49.2301903 196.8481140  23.7623901
  49.4846230 198.3075256  22.1058331  50.5002251 198.5647125  22.4066830
  49.4489021 198.2248230  21.0195637  48.5921288 199.4947357  22.3547230
  48.9053421 200.5229950  23.2230053  47.8249893 201.2939758  23.2100353
  47.7155228 202.1937561  23.7972336  46.8883781 200.8214874  22.3792458
  45.9377098 201.1624908  22.3722706  47.3712463 199.6689301  21.7816257
  46.9204941 199.0806274  20.9960613  47.6448479 196.5436707  22.3317280
  46.7214470 196.7890015  23.1464634  47.3939934 195.9197845  21.1944771
  48.1861343 195.9141235  20.5679169  46.0515709 195.5405731  20.7272739
  45.3650894 196.3553162  20.9575977  46.0478859 195.5189819  19.1975803
  46.7700539 194.7692719  18.8743134  45.0840569 195.1539154  18.8428173
  46.5873489 197.1249390  18.5661030  45.4376297 197.7981720  18.6651745
  45.4280815 194.2618256  21.2914352  44.2421684 193.9362793  21.2054634
  46.1927681 193.6387482  22.1589756  47.1355972 193.9991302  22.1949844
  45.7476006 192.6356812  23.1435852  45.3676910 191.7874451  22.5741444
  47.0010452 192.1020203  23.8289185  47.4015541 192.9299011  24.4139805
  46.7246857 191.4479065  24.6558781  47.6357193 191.6150513  23.0885315
  44.7173157 193.1713409  24.1327515  43.9607277 192.3655243  24.7036991
  44.5045815 194.4773407  24.2484093  45.1265984 195.1376953  23.8044052
  43.5384789 195.1092072  25.1580696  43.6941681 194.7044067  26.1580658
  43.7985687 196.6275787  25.2207890  43.2308159 197.1470032  25.9927654
  44.8676605 196.7627106  25.3847446  43.4886360 197.2233734  23.8916225
  43.7639427 198.1425781  23.9211864  42.1189957 194.8715973  24.7090740
  41.2169724 194.8480377  25.5373268  41.8237381 194.6600647  23.4197693
  42.6382217 194.6768188  22.8227406  40.5394745 194.3595428  22.8390064
  39.7546654 194.9866486  23.2619915  40.4872742 194.5513153  21.3260860
  40.9542542 193.6799316  20.8670425  39.4894791 194.6089630  20.8911343
  41.2137527 195.7847290  20.7640400  42.2629128 195.6996765  21.0471020
  41.1232910 195.8757629  19.2262974  40.1106377 195.7577362  18.8406773
  41.4925575 196.8452606  18.8919392  41.8071785 195.0818634  18.9260979
  40.5965767 197.0802307  21.3299103  40.8043861 196.9732513  22.3945580
  41.1774368 197.9005432  20.9082317  39.5097961 197.1132202  21.2529945
  40.0415077 192.9399414  23.1716747  38.8225060 192.6724701  23.3634491
  41.0126915 192.0292511  23.2533455  41.9542465 192.3860779  23.1741810
  40.9603195 190.5984497  23.5865135  39.9780884 190.2806702  23.2367458
  41.9132500 189.6982727  22.8829041  41.5823250 188.6898346  23.1311836
  41.9511032 189.7944336  21.3827457  42.3491249 190.7485199  21.0371914
  42.4709473 188.9578552  20.9158535  40.9362488 189.6551208  21.0102291
  43.2390900 189.8418121  23.3863945  43.6959610 189.0659332  23.0534172
  41.0326538 190.3541870  25.1184425  41.3008842 191.2552032  25.9086533
  40.7102890 189.1522675  25.5837498  40.4566650 188.4223328  24.9333878
  40.6145134 188.8195801  27.0344849  40.2453117 189.7040558  27.5536156
  39.6041908 187.7258301  27.1670074  39.5116501 187.3949127  28.2014332
  38.6295242 188.0648804  26.8160572  39.9537430 186.6157379  26.3473740
  40.5697289 186.1205292  26.8922844  41.9609337 188.5011597  27.7136173
  41.9890900 188.0878296  28.8801346  43.0382996 188.7084045  27.0571632
  42.9929314 189.3317566  26.2637634  44.4225426 188.3343506  27.4690571
  44.4000626 187.8199921  28.4298038  45.0204773 187.2766876  26.5386162
  45.2140732 187.7016144  25.5537014  46.0374146 187.0068817  26.8234806
  44.1266785 186.0951080  26.2772884  43.4630203 185.8081055  25.1424885
  43.5355148 186.3346863  24.2023563  42.7411499 184.5879822  25.2411366
  42.0876160 184.2347412  24.5568733  42.8501358 184.0874481  26.5452213
  42.3282242 182.9325409  27.1587543  41.5203438 182.3615265  26.7255402
  42.7948494 182.5863953  28.4505863  42.3495369 181.6836548  28.8419647
  43.6371307 183.4223175  29.1730194  43.9627342 183.1733093  30.1722107
  44.0397072 184.6599579  28.5715656  44.6434898 185.2947388  29.2031670
  43.7153168 185.0415955  27.2492580  45.4470024 189.4205475  27.5788612
  45.4810104 190.2400208  26.6793766  46.3415642 189.4438324  28.5704174
  46.5267868 188.3999329  29.6180096  46.6253357 187.4087524  29.1753674
  45.6394577 188.4139862  30.2509003  47.7683640 188.7491302  30.3795586
  48.5591354 188.1859131  29.8840046  47.7150841 188.4747467  31.4331131
  47.9532318 190.2414093  30.1480103  49.0025101 190.5337677  30.1885204
  47.2795639 190.8187408  30.7812214  47.3286285 190.4662628  28.7511272
  46.8589859 191.4498749  28.7435055  48.3903198 190.3674622  27.6635227
  48.7525864 189.2701263  27.1924877  49.1443024 191.5064545  27.3767872
  48.8807869 192.8382874  27.9542675  49.3435478 192.8431091  28.9411469
  47.8144684 193.0241699  28.0827808  49.5004883 193.8195648  27.0131893
  49.7900009 194.7145081  27.5639763  48.8122749 194.1641846  26.2413769
  50.6749382 193.0270844  26.4635696  51.5214233 193.0751495  27.1485939
  51.1020737 193.3959351  25.5310421  50.1198044 191.5594025  26.2822533
  49.5961494 191.4234467  25.3359966  51.2341576 190.4654388  26.3222828
  51.5482330 189.8651428  25.2855434  51.7211037 190.0865021  27.4860859
  51.4517403 190.5515442  28.3412418  52.7155304 189.0387573  27.7021179
  53.4921799 189.4442749  27.0536823  53.2337227 189.0808563  29.1244507
  53.9743538 188.2864380  29.2164860  53.8576546 189.9677582  29.2349129
  52.3232651 188.8831482  30.2639008  51.8466263 189.8483124  31.0954952
  52.0120926 190.9102478  30.9890480  50.9696808 189.3271484  32.0187149
  50.4104080 189.8223114  32.6985168  50.8842354 187.9478760  31.8424587
  50.0773697 186.9382019  32.4099617  49.3702736 187.1560059  33.1967125
  50.1394539 185.6059570  31.9952393  49.5364037 184.8822784  32.5234718
  51.0715485 185.2367706  31.0151405  51.1201859 184.2491608  30.5807648
  51.8883667 186.2119598  30.4181480  52.4744263 185.9817810  29.5406780
  51.7540817 187.6110382  30.7779255  52.3656731 187.6202393  27.2712784
  53.2647095 186.8889618  26.8017025  51.0858688 187.1706696  27.2471581
  50.3260536 187.8141632  27.4165401  50.7052498 185.8669586  26.7231255
  51.3260117 185.1976624  27.3187714  49.2314224 185.5350189  27.0162239
  49.0076027 185.6359558  28.0782127  48.7412262 186.2938080  26.4062748
  48.7807693 184.0971985  26.5467949  48.9536781 184.0166168  25.4736156
  49.3950996 182.9467010  27.3540611  49.2775650 183.0876465  28.4284973
  49.0248604 181.9468689  27.1274071  50.4637604 182.8731384  27.1524277
  47.2596512 183.9893341  26.6126671  46.9155769 184.8092499  25.9822311
  46.9209213 183.0474091  26.1812172  46.9619942 184.1492462  27.6489716
  51.1055908 185.6509857  25.2375259  51.6507759 184.6362152  24.8860168
  50.7718315 186.6358795  24.4162312  50.4574280 187.5166779  24.7975979
  51.1150551 186.5778351  22.9972305  50.5907173 185.6558075  22.7461777
  50.4100838 187.7221680  22.2614937  50.7414703 188.6733551  22.6780682
  50.7664299 187.7298126  21.2314167  48.8704720 187.6355438  22.1972923
  48.2069588 186.6021881  21.5158558  48.8439751 185.8558350  21.0646820
  46.7890892 186.5016174  21.5277557  46.3399200 185.6813965  20.9874859
  46.0700302 187.4622955  22.2347965  44.7369919 187.4895020  22.2974854
  44.3817596 187.0055847  21.5483284  46.7465210 188.5267334  22.8886185
  46.2479477 189.2628174  23.5018044  48.1518402 188.5926056  22.9192657
  48.5598297 189.3728638  23.5446701  52.6223984 186.4816132  22.6863213
  52.9746857 185.7768250  21.7722588  53.4881897 187.0709686  23.5331116
  53.0668983 187.6242828  24.2655411  54.9356842 186.8569336  23.3923397
  55.3009338 187.2566986  22.4463558  55.7279778 187.6062775  24.4330711
  55.4070435 187.2779236  25.4216461  56.7752647 187.3911133  24.2209587
  55.5685959 189.0429993  24.4258614  56.0543633 189.4098358  25.1682014
  55.4010353 185.3744507  23.5326805  56.3800659 184.9726410  22.9578400
  54.6187439 184.5265045  24.1662598  53.7551880 184.8715515  24.5603638
  54.8926010 183.0573425  24.4122238  55.9750671 182.9855652  24.3063564
  54.3219795 182.5610046  25.7714195  53.2450256 182.4806824  25.6236954
  54.7830658 181.5822296  25.9037094  54.5774384 183.3625793  27.1054153
  53.8780785 184.1964417  27.0449219  54.2625008 182.6548004  28.4787407
  55.0759201 181.9463043  28.6352940  54.3787231 183.4995270  29.1577282
  53.2622795 182.2243195  28.4302635  56.0220146 183.9476318  27.2919254
  56.1038208 184.6595459  26.4705982  56.1377449 184.4961395  28.2267227
  56.6673317 183.1136169  27.0160732  54.3396492 182.1840363  23.2672863
  54.5098076 180.9837341  23.2537937  53.8271828 182.8078156  22.2389469
  53.4544907 183.7420044  22.3311081  53.4333000 182.1969299  20.9763069
  53.7936058 181.1712646  20.8968239  51.9143295 182.1550903  20.8677120
  51.5663948 183.1689148  21.0657139  51.5885086 181.7752228  19.8993893
  51.2261925 181.1993561  21.8329124  50.7609634 181.7453308  23.0378742
  50.8508835 182.8100433  23.1950455  50.1685066 180.9382324  23.9686451
  49.7666702 181.3018646  24.9028358  49.9078751 179.5636139  23.7349300
  49.2873764 178.8105469  24.6989193  48.6997261 179.2360992  25.3275490
  50.3755188 178.9694366  22.5350227  50.2426491 177.9130249  22.3541107
  50.9919052 179.8174744  21.5343647  51.2060089 179.4153290  20.5551586
  54.0360222 182.9890747  19.7769127  53.9213562 182.6650391  18.5797939
  54.7036972 184.1114960  19.9902821  54.7872124 184.4326324  20.9442196
  55.3632965 184.9577942  18.9806786  54.6201019 185.2062225  18.2230186
  55.6776314 186.2620850  19.6579952  54.7301445 186.7616272  19.8600368
  56.2555122 186.0733185  20.5627251  56.4757118 187.2114716  18.6702557
  56.4057541 187.0586548  17.4103527  57.4446144 187.8738556  19.1522179
  56.6489258 184.3686676  18.3775654  57.6157951 184.2069702  19.1154728
  56.6663437 183.9712067  17.0712795  55.8437157 184.1134644  16.5028210
  57.8374519 183.3095551  16.4400959  58.0190201 182.3483429  16.9209595
  57.5707893 182.9469604  14.9607325  57.6268311 183.8324432  14.3275785
  58.2903633 182.1651459  14.7176781  56.6069031 182.4613190  14.8084908
  59.1005211 184.1456299  16.5879917  60.1895409 183.6176147  16.7060242
  59.0899544 185.5151062  16.6427135  58.1782722 185.9383392  16.7417488
  60.2606735 186.3369141  16.8800354  61.1332283 185.9650116  16.3429642
  59.9153595 187.7929688  16.4371605  59.0419312 188.1835175  16.9593678
  60.7159348 188.4556427  16.7658844  59.7166367 187.9186859  14.9095154
  58.8626366 187.2634583  14.7378931  59.5345459 188.9618378  14.6510525
  60.9086456 187.3872375  14.0960493  62.0876846 187.3937531  14.4776859
  60.6669998 186.9407043  12.9779596  60.7556419 186.2833862  18.2858086
  61.9775696 186.1886749  18.5487614  59.8496170 186.2920990  19.2942886
  58.9100494 186.6376648  19.1605110  60.2976913 186.1257324  20.6763325
  61.2406044 186.6681213  20.7457771  59.1459427 186.4795685  21.6322765
  58.2717972 185.8332672  21.5529861  59.5473213 186.3218536  23.1417465
  60.5071297 186.8376923  23.1696358  58.8538361 186.7792969  23.8473854
  59.6061478 185.2613983  23.3868370  58.6458626 187.8302002  21.4581261
  58.3731956 187.8441467  20.5377655  60.7744942 184.6621704  20.9623775
  61.7174072 184.4518585  21.6542549  60.0743637 183.7229156  20.3485050
  59.2661743 183.9334412  19.7805119  60.4751358 182.3513489  20.4943256
  60.5543861 182.0210876  21.5300598  59.4090271 181.4879456  19.7283688
  59.2405663 181.9226837  18.7431126  59.8883247 180.5178986  19.5965767
  58.0617485 181.2911987  20.4779186  57.7050171 182.2632446  20.8184662
  56.9616051 180.7854462  19.5249977  57.2797127 179.9264374  18.9342098
  56.1225128 180.4687195  20.1444397  56.4217491 181.4241180  18.8258915
  58.2565804 180.3245087  21.6591625  59.0742188 180.6963348  22.2766628
  57.3706551 180.2609253  22.2909813  58.3419304 179.3239288  21.2353001
  61.8535042 182.0050354  19.8420105  62.4206200 181.0830078  20.3371506
  62.2355919 182.6778870  18.7753487  61.6706581 183.4494019  18.4502087
  63.5967674 182.5778961  18.2396736  63.7645683 181.5022736  18.1850166
  63.7666168 183.2087097  16.8238449  63.3336868 184.2080231  16.7785072
  64.8373718 183.2921906  16.6377907  63.1553612 182.3262329  15.7493305
  63.7296791 181.4035492  15.6660900  62.1308441 182.0782928  16.0268116
  63.1326370 183.0153656  14.0951042  64.8993073 183.0946350  13.6399002
  65.3284531 182.0931854  13.6721191  64.9624634 183.4638519  12.6162834
  65.4796219 183.7455902  14.2938128  64.6353683 183.1894684  19.2233620
  65.7590408 182.6869202  19.3194542  64.2506943 184.3208466  19.7905102
  63.4042168 184.7965851  19.5125885  65.2198181 184.9358368  20.6919632
  66.1534729 185.0636292  20.1441822  64.7126312 186.3482208  21.1222706
  64.5698700 186.9045258  20.1958466  63.8402100 186.1219025  21.7352619
  65.7572327 187.1290894  22.0178375  65.3453903 188.1284790  22.1582432
  65.7619019 186.6575012  23.0005302  67.1574478 187.2464600  21.3937931
  67.1974335 187.4908447  20.1750374  68.1587067 187.0014648  22.0611477
  65.4882126 184.1529236  21.9620132  66.6297531 184.0678253  22.3876514
  64.4906387 183.4345398  22.5877571  63.5646439 183.6360016  22.2384224
  64.8128357 182.5670776  23.7841053  65.2473679 183.1268921  24.6122856
  63.4565163 182.0150909  24.3986664  62.9229965 181.5476685  23.5710392
  63.6480713 181.3379059  25.2310295  62.5470238 183.1735840  24.8831997
  63.0573540 183.6193085  25.7370071  62.4613800 183.9933472  24.1699314
  61.1466904 182.7043457  25.3588772  60.4678459 183.5453644  25.5001888
  60.7616158 182.1322174  24.5147800  61.2942581 181.9978333  26.6164074
  62.2199783 181.9605560  27.0185852  60.2802582 181.4062347  27.2940845
  59.0496368 181.2395477  26.8523769  58.8381844 181.8015137  26.0402222
  58.4265633 180.6435242  27.3783436  60.5700455 180.8109741  28.3662777
  61.5375023 180.7066956  28.6369305  59.8282509 180.4085999  28.9212017
  65.8157425 181.5120087  23.3651562  66.6482773 181.1895142  24.2005081
  65.7027130 180.9048004  22.1350574  64.8202362 181.0701141  21.6724396
  66.6033936 179.8040161  21.7739201  66.8880539 179.1922607  22.6299782
  65.9332809 178.9072266  20.6607914  65.5789261 179.5458832  19.8516922
  66.8671494 177.8160706  20.1455746  67.1428757 177.2897491  21.0593891
  66.1869278 177.1813660  19.5776539  67.7529297 178.2186584  19.6542168
  64.5755463 178.2757721  21.2324390  63.9507065 178.9899139  21.7687912
  64.0189056 177.9207916  20.3651199  64.7809219 177.3993225  21.8470688
  68.0208054 180.4210510  21.4002113  69.0196304 179.8452148  21.8549805
  68.0869675 181.5863037  20.7285748  67.2688293 182.1307831  20.4955711
  69.3548889 182.2601166  20.5228481  70.0106049 181.6282043  19.9238186
  69.2583618 183.5777435  19.7470875  68.5112305 184.1657867  20.2800922
  70.1963043 184.1005249  19.9343567  68.9974899 183.4981537  18.2196579
  69.7433090 182.8163605  17.8109856  68.0103607 183.0759277  18.0314980
  68.9768219 184.9370270  17.7106228  68.0889130 185.4924927  18.0125732
  69.8537674 185.4760132  18.0691986  68.8997955 184.9047394  16.1952286
  69.6404343 184.1895905  15.8372850  67.9407578 184.5163422  15.8524580
  69.2429123 186.2659912  15.6073523  70.1660004 186.5807190  15.8699522
  69.2537231 186.2052002  14.5992403  68.6323471 187.0169373  15.8961344
  70.1706467 182.4945526  21.8007412  71.3054657 182.1018829  21.9077129
  69.5820618 183.0973969  22.8074436  68.7022324 183.5680237  22.6509342
  70.1779022 183.2999268  24.1663017  71.0965881 183.8745117  24.0481186
  69.0965042 184.1472931  24.9820480  68.7691116 184.9289703  24.2965603
  68.2254715 183.5388489  25.2253590  69.7067413 184.8317871  26.2817917
  70.0803375 184.0596771  26.9543629  70.5320587 185.4965820  26.0268173
  68.6465912 185.7498016  27.0161304  69.1379623 186.3597412  27.7741756
  68.3443451 186.4952545  26.2805710  67.5510559 184.9550629  27.5462341
  67.7153931 183.9836731  27.7687092  66.3669891 185.3596802  27.9063587
  65.9404449 186.6218414  27.8227158  66.5012589 187.3997955  27.5058861
  65.0371933 186.9035492  28.1760979  65.4712677 184.5015411  28.3394680
  65.8205795 183.6083069  28.6560421  64.5877151 184.8461456  28.6868553
  70.6374054 182.0135345  24.8486843  71.5194016 182.0340118  25.6730900
  70.1548615 180.8287201  24.4495106  69.3180313 180.7789154  23.8861847
  70.7636032 179.5518799  24.8274326  71.2367477 179.6873627  25.7999973
  69.5619659 178.5679626  25.0055771  68.8651505 178.9429169  25.7552128
  69.0144501 178.4696198  24.0682125  69.8716812 177.1376190  25.3984127
  68.9313507 176.5932007  25.3118305  70.5231400 176.7119293  24.6352005
  70.4459229 177.0590057  26.7981701  69.7317123 176.8764648  27.7432995
  71.7396469 177.0330811  26.8816662  72.1498184 176.9109802  27.7965164
  72.2506409 176.7731628  26.0501461  71.8296204 179.0885468  23.8192501
  72.8949966 178.6185455  24.2047234  71.6651154 179.2341461  22.4743805
  70.8718491 179.7080688  22.0666676  72.6447678 178.8251190  21.4621601
  72.8718262 177.8161316  21.8063812  72.0885010 178.7554626  20.0196915
  71.8845520 179.7657318  19.6649399  72.8842087 178.2966003  19.4328403
  70.8507233 177.9254761  19.7081356  69.9857788 178.1837006  20.3191166
  70.4940033 178.0933228  18.2321606  71.4414673 177.9262695  17.7197990
  69.7184143 177.4524841  17.8127613  70.2422562 179.1396637  18.0592136
  71.1063995 176.4229889  19.9725094  71.1859436 176.3090210  21.0536175
  70.2528000 175.8025513  19.6995049  72.0081406 176.0634003  19.4768677
  74.0238724 179.6088867  21.5561352  75.0980911 179.0795898  21.2243195
  73.9481659 180.8467255  22.0070457  73.0314713 181.2691498  22.0435467
  75.1438828 181.6453705  22.3256168  75.8721008 181.5554352  21.5195732
  74.9058609 183.1091003  22.6659279  73.9862823 183.2168274  23.2411442
  75.6995926 183.4170380  23.3465576  74.8098831 184.0280304  21.4326515
  75.8692703 184.8607941  20.9639339  75.3581772 185.4925385  19.8789883
  75.9316559 186.1984253  19.2965298  74.0349731 185.2089386  19.7728767
  73.3976517 185.6101990  19.0998993  73.6807785 184.2866974  20.7526932
  72.7336502 183.8031158  20.9411278  75.9697647 181.0491943  23.5971603
  77.2034073 181.1652832  23.5723629  75.2895813 180.4253693  24.5083847
  74.2817078 180.4901276  24.5189629  75.9407196 179.6732788  25.5424805
  76.7289047 180.3449707  25.8826141  74.9882584 179.3110352  26.7268295
  74.0726700 178.9061890  26.2956734  75.4127884 178.5228119  27.3485832
  74.5639648 180.5796814  27.4950657  74.6757812 181.5030365  26.9267254
  73.5008316 180.4690704  27.7086277  75.3376999 180.5761414  28.8320236
  75.9515381 181.6140442  29.1625881  75.2982483 179.5726776  29.5678082
  76.5444946 178.4409637  24.8962860  77.7309799 178.2279053  25.2160492
  75.9286423 177.6848907  24.0016117  75.0342178 177.9715729  23.6302528
  76.4630356 176.5171051  23.2887211  76.9388199 175.9520874  24.0902748
  75.3912125 175.6830902  22.5671253  74.8256683 176.3209686  21.8878937
  75.9651184 174.9604492  21.9870033  74.4620285 174.9239655  23.4660969
  74.6769791 174.8021240  24.7917767  75.5240555 175.1955719  25.3340664
  73.6363831 174.1250610  25.3718262  73.5067749 174.0444946  26.3702316
  72.7843018 173.6505127  24.3967247  71.6149902 172.8377838  24.3996487
  71.2722855 172.4397888  25.3433456  70.8905258 172.6235352  23.2117653
  69.9065323 172.1783905  23.2110310  71.3802338 173.1653748  21.9815578
  70.8657761 173.0010376  21.0462875  72.5388336 173.9306183  22.0123062
  72.9067001 174.3226166  21.0756016  73.2158051 174.2923889  23.2103481
  77.5890808 176.9093628  22.3194218  78.5328827 176.1279297  22.1553364
  77.6592407 178.1141205  21.7480888  76.8530579 178.6967773  21.9232540
  78.6659851 178.6096649  20.7902908  79.5551071 177.9872437  20.8910751
  78.1439362 178.4714661  19.3663311  77.6186600 177.5173340  19.4091682
  77.4274445 179.2556152  19.1216793  79.2422104 178.4496307  18.2879734
  80.3651352 178.9230957  18.5194073  78.9881210 177.9182587  17.1926365
  79.1084976 179.9902649  21.1673927  78.4169693 180.9268951  20.8064270
  80.2218628 180.1151428  21.9430904  80.7740402 179.2936096  22.1437645
  80.7651825 181.4157410  22.4792595  79.9906006 181.9462738  23.0330219
  81.8606110 181.1481323  23.5315666  82.7034607 180.6531982  23.0491333
  82.1000824 182.1513519  23.8841381  81.4075241 180.2536926  24.7081909
  82.0170212 180.6043854  25.5410404  80.3368530 180.3821716  24.8671322
  81.7434006 178.7749481  24.4779015  81.4372406 178.2309570  23.3893337
  82.1562347 178.0703888  25.4401207  81.2686081 182.4034424  21.3951893
  81.5577774 183.5465698  21.6725178  81.4913559 181.9391479  20.1567478
  81.1706924 181.0077057  19.9338570  82.0556335 182.6996613  19.0648537
  82.3846436 183.6437073  19.4991608  83.3914642 182.0693817  18.5176201
  83.3737564 181.0252686  18.8300819  83.4301987 182.2431946  17.4422646
  84.6323547 182.6467896  19.1993332  85.2484283 182.0729218  20.1067886
  85.1063156 183.7451782  18.6371460  85.9559708 184.0956573  19.0558949
  84.6371613 184.2795715  17.9199238  81.0565262 182.9825134  17.8747540
  81.4324417 183.4973907  16.8213787  79.8168793 182.3870087  17.9697285
  79.6507797 181.8680573  18.8201313  78.8029022 182.4238586  16.8847084
  79.2925339 182.0689697  15.9778423  77.6982651 181.4255981  17.2206306
  78.1777725 180.4551849  17.3489723  77.3315277 181.7070007  18.2077599
  76.5219116 181.3159637  16.1698475  76.9662247 181.6538239  15.2336149
  75.9124374 179.9415436  16.1804085  75.4359360 179.8023376  17.1508064
  75.2414246 179.9347534  15.3214579  76.6246262 179.1273041  16.0466080
  75.3601456 182.3056793  16.5016346  75.6308441 183.3609924  16.5355034
  74.6618042 182.2778015  15.6651840  74.7758026 182.1443787  17.4075165
  78.3547134 183.8544006  16.6230736  77.7926331 184.5257416  17.4793301
  78.4804764 184.3167877  15.3861513  79.0675888 183.8240051  14.7284479
  77.9064026 185.5237579  14.8184681  77.5964813 186.1795197  15.6321306
  79.0677719 186.1195679  13.9770517  79.4274979 185.3628845  13.2798262
  78.6269913 186.9302368  13.3968468  80.1896210 186.6030273  14.8589993
  79.7716522 187.2989502  15.5863876  80.7189560 185.8305359  15.4168396
  81.2884369 187.3092041  13.9485397  82.2376404 187.4509583  14.4652719
  81.5610657 186.5597687  13.2054911  80.9460220 188.6485138  13.2864418
  81.8186874 189.0705414  12.7880011  80.1946793 188.5878448  12.4990969
  80.4472733 189.6820526  14.2288036  81.1875992 190.2906189  14.5476532
  79.6648712 190.2162933  13.8787766  80.1042404 189.1794434  15.0349188
  76.6074448 185.2397461  14.0981998  76.6237564 184.2428131  13.3826733
  75.5406799 186.0626678  14.2580605  75.6374283 186.8644714  14.8645697
  74.1499100 185.7671661  13.8652000  73.8479614 184.9500427  14.5203743
  73.2390594 186.9683990  14.2503624  73.6969376 187.9120331  13.9536858
  72.2988663 186.7607880  13.7394505  72.9405212 187.0720978  15.8167009
  73.7881775 186.6820221  16.6442337  71.7533417 187.3648224  16.1327858
  74.0003052 185.4021301  12.3628187  73.1476822 184.5183563  12.0159674
  74.8433990 185.9277954  11.4618311  75.4829483 186.6120758  11.8397808
  74.7620926 185.8224335   9.9562216  73.8840332 186.3161621   9.5398722
  76.0230331 186.5341644   9.4836111  76.8760757 185.9247589   9.7820129
  75.9611053 186.5075684   8.3956947  76.2815857 188.0089569   9.9663744
  76.7105713 188.0707550  10.9665022  77.0569992 188.3354797   9.2733965
  75.0250092 188.9235382   9.7936516  74.3475037 188.7675934   8.7053680
  74.7055969 189.8620605  10.5846024  74.8196793 184.3365936   9.4475355
  74.2907104 183.9992523   8.3833809  75.4057083 183.3845215  10.2470179
  75.7923431 183.6657715  11.1366873  75.4001846 181.8819885  10.0032120
  75.5949554 181.7164307   8.9436102  76.5276718 181.2883606  10.7860432
  76.7245102 180.2544861  10.5024214  77.4439163 181.8540802  10.6170082
  76.2437897 181.3359528  12.1633615  77.0278320 181.1485138  12.6846523
  74.0250244 181.1554565  10.2976789  73.9274216 179.9057007  10.0738020
  72.9717026 181.8091431  10.8234215  73.0181808 182.8011169  11.0076542
  71.6906357 181.1896515  11.2245035  71.7631760 180.1058044  11.1344566
  71.4070053 181.4252777  12.7616968  71.4848251 182.5095520  12.8417702
  70.4242859 181.0469208  13.0431433  72.4696884 180.8126373  13.7058783
  73.4809723 181.1069946  13.4252338  72.2518463 181.2473602  15.2675571
  71.1900787 181.0982971  15.4638882  72.9263153 180.7375336  15.9555054
  72.3870316 182.3257599  15.3504562  72.4339218 179.2660522  13.6402531
  72.6898651 178.8732300  12.6562338  73.2094040 178.8614502  14.2906628
  71.4456863 178.8762512  13.8842669  70.5161514 181.6527252  10.2936573
  70.5056686 182.7734528   9.8391857  69.4870834 180.8192139  10.1299105
  69.5559235 179.3728333  10.3486376  69.2205353 179.1196289  11.3543739
  70.5621643 179.0092163  10.1403952  68.6438217 178.7611084   9.3524094
  68.2190475 177.8027954   9.6512518  69.1942673 178.7723541   8.4116745
  67.5289993 179.8030548   9.2022629  66.8063660 179.6456604  10.0029640
  67.0336609 179.6186066   8.2489939  68.3120956 181.1269684   9.3031750
  68.6859665 181.3945770   8.3148909  67.4471283 182.2717438   9.8238058
  66.9779282 182.3271484  10.9378614  67.1218567 183.2132721   8.8694429
  67.5544281 183.1952515   7.9569454  66.2769165 184.4123383   9.1668396
  66.5049133 184.8222504  10.1507607  66.5301056 185.5209351   8.1357632
  65.7041473 186.2276306   8.2163048  67.7763824 186.3006592   8.5019827
  68.6425476 185.6389618   8.5012159  67.9445114 187.0461578   7.7247562
  67.6904449 186.7546692   9.4891977  66.7262268 185.0329437   6.7871737
  66.7714844 185.8229523   6.2436357  64.7408676 184.1085968   9.2109041
  63.9034233 184.8587341   9.7112103  64.3498154 182.8373260   8.8857813
  65.1153183 182.2146301   8.6704779  62.9966507 182.2964783   8.7474165
  62.3633041 183.1665344   8.9206200  62.8704605 181.6495209   7.3141260
  63.4724922 182.2208099   6.6075253  63.3036499 180.6502838   7.3588018
  61.4631653 181.6793671   6.7959294  60.8196983 182.7082520   6.8120260
  60.9214668 180.5317841   6.3506937  60.1013565 180.7871857   5.8193879
  61.5434151 179.7789459   6.0927668  62.6891289 181.3471375   9.8840942
  63.4584618 180.3868561  10.0831728  61.6360283 181.5348206  10.7332039
  60.5912590 182.5535889  10.6191730  60.3016052 182.7427368   9.5855265
  60.9791832 183.5112762  10.9662390  59.4324532 182.0125275  11.4928741
  58.8608665 181.2477112  10.9670839  58.8136444 182.7986603  11.9255009
  60.1945763 181.3335266  12.6118088  59.5934067 180.6562958  13.2184858
  60.5855942 182.1478119  13.2218437  61.4273415 180.7115479  11.9151726
  62.2529564 180.8463440  12.6139498  61.1487465 179.2590027  11.5785456
  61.6268044 178.4552002  12.3577795  60.5877228 178.9094391  10.4057083
  60.2753067 179.6487274   9.7925606  60.4163933 177.5168762   9.9070911
  59.8070793 176.9884644  10.6403151  59.6229591 177.5249786   8.5735302
  60.0595398 178.3275146   7.9790230  59.7127419 176.3193207   7.6422434
  59.6135254 175.3662262   8.1617384  58.9805641 176.2484894   6.8378782
  60.7149849 176.4331818   7.2291508  58.1272926 177.9814453   8.7887478
  57.4251251 177.2867737   8.3277578  57.9665375 177.9724426   9.8667908
  57.9909782 179.4489899   8.2339716  57.7785339 179.3773499   7.1672778
  57.1378136 179.9339294   8.7083645  58.8623276 180.0808258   8.4061384
  61.7992477 176.8216095   9.8255215  62.1277008 175.9129944  10.5997162
  62.6502800 177.3224487   8.9302969  62.2980995 178.0726013   8.3529491
  64.0367355 176.9379883   8.8633728  64.0450974 175.9156799   8.4853573
  64.7076416 177.8136292   7.7682920  64.7345810 178.7957306   8.2403584
  65.7557220 177.5532837   7.6205034  63.9821587 177.9796753   6.3810682
  62.7888870 178.3887177   6.3215690  64.6872482 177.6495972   5.3467989
  64.9378662 176.8947144  10.1080198  65.7454071 175.9263611  10.2529612
  64.7735748 177.8395844  11.0321722  64.2541733 178.6450653  10.7135630
  65.4849625 177.9535522  12.2574005  66.5594635 177.8267212  12.1252136
  65.2633133 179.3325500  12.8762827  65.5386276 180.0319672  12.0868950
  64.1880646 179.4156952  13.0344849  65.9197083 179.6149750  14.2617340
  65.2283630 179.1651764  15.4327745  64.2754517 178.6590118  15.3863096
  65.8221359 179.3184662  16.6714096  65.3916321 178.9560699  17.5932178
  67.0607681 179.9376068  16.7644711  67.6118317 180.0225983  17.6894073
  67.7504654 180.3569183  15.5774145  68.7557983 180.7260590  15.7167902
  67.2183838 180.0972748  14.3402605  67.8492508 180.1056824  13.4637136
  65.1509247 176.8229065  13.2125492  65.9664536 176.0305023  13.6990833
  63.8122559 176.7464294  13.4564552  63.1422653 177.4363556  13.1479006
  63.2583542 175.7006378  14.3740520  63.7494659 175.7370758  15.3464613
  61.7652016 175.8702698  14.6740704  61.4661140 175.2223358  15.4979830
  61.4571114 176.9020386  14.8432817  61.1439323 175.5311890  13.4180346
  61.3150597 176.1714172  12.7234659  63.6034317 174.3106079  13.9125319
  63.9792519 173.5031738  14.7447681  63.5686951 174.0563660  12.5691900
  63.1203804 174.6896057  11.9225664  64.0651398 172.7901459  11.9803953
  63.4604874 172.0036774  12.4320021  63.7303505 172.6788330  10.4854212
  64.0462723 173.6161499  10.0274563  64.4590683 171.9886627  10.0602970
  62.3775368 172.2590790  10.0039606  61.7526894 171.1000519  10.5097427
  62.3072701 170.4973297  11.2137127  60.5534668 170.6179810   9.8969717
  60.0167542 169.7431946  10.2332773  60.0546684 171.2912292   8.8139849
  58.8996773 170.8975525   8.2377777  58.8053131 171.2204590   7.3386507
  60.6715393 172.4497375   8.3245497  60.2455597 172.9394379   7.4613299
  61.7773819 172.9763489   8.9516640  62.3361664 173.8143616   8.5619459
  65.5056229 172.4771423  12.3439207  65.7741699 171.3256683  12.7210217
  66.4942856 173.3928375  12.2239084  66.2094955 174.2822266  11.8392334
  67.9179459 173.2187653  12.5956650  68.3053818 172.3469391  12.0684843
  68.7357178 174.4978485  12.2703390  68.4211502 174.8821106  11.3000345
  68.5175400 175.2180176  13.0589170  70.2509918 174.2051086  12.3677282
  70.8084564 175.1372986  12.4590902  70.5446243 173.6129761  13.2344847
  70.8251801 173.7116394  10.9799738  71.9109955 173.6442413  11.0475712
  70.4084320 172.7158508  10.8288269  70.4435883 174.6083069   9.8763618
  69.6133575 174.3234558   9.3766747  71.2018661 175.5082092   9.2930269
  72.3351440 176.0202637   9.8257341  72.5801544 175.7160645  10.7571449
  72.8363266 176.7439728   9.3305779  70.9076843 175.9993591   8.1182804
  70.0840378 175.6655426   7.6384230  71.5336761 176.6886444   7.7269607
  67.9724426 172.7726288  14.1161528  68.6237793 171.7774353  14.3958588
  67.1904297 173.4307556  14.9040060  66.5592728 174.0882874  14.4688034
  67.1801071 173.1673737  16.3620167  68.2188492 173.1197510  16.6889019
  66.5049667 174.2617493  17.1657562  65.5459976 174.4360657  16.6778049
  66.4394455 173.9423218  18.6931000  67.3801498 174.0168152  19.2386551
  65.8305893 174.7616730  19.0752869  66.0348358 172.9742737  18.9884872
  67.2665634 175.5858612  17.0156898  67.3862305 175.8043823  15.9545383
  66.7850571 176.4082794  17.5447407  68.3013000 175.5600739  17.3573799
  66.5710907 171.8014832  16.6538029  67.1735153 170.9678040  17.3679390
  65.3737411 171.3757935  16.0549431  64.8498077 172.0812988  15.5570974
  64.8466873 170.0267639  16.2578583  64.6608429 169.7585144  17.2978630
  63.5318604 170.0558167  15.4998398  63.7926254 170.2323151  14.4563065
  63.0350571 169.0882416  15.5710144  62.9207649 170.8867188  15.8523693
  65.7743835 168.8924408  15.7421341  65.9287872 167.8792725  16.4318466
  66.5524902 169.1150055  14.6752825  66.4028397 169.9697876  14.1585083
  67.6258087 168.2562561  14.2021675  67.1068268 167.3217773  13.9888601
  68.0834885 168.8426056  12.8749533  68.5891190 169.8002777  12.9987431
  68.8182983 168.1082611  12.5449581  67.3059158 168.9087219  12.1139631
  68.7531052 168.1332397  15.2332001  69.1550522 166.9697266  15.4732885
  69.3083496 169.2134094  15.8209467  68.9030685 170.1199951  15.6366892
  70.5315628 169.1829987  16.6152363  71.1685944 168.3673859  16.2730751
  71.3440094 170.4360809  16.4023056  72.3504105 170.3616333  16.8142776
  71.3890381 170.6764374  15.3400898  70.5133362 171.8269043  17.1148911
  69.4043732 171.6281738  16.3968315  70.3192368 168.9270020  18.1333542
  71.3015137 169.0127411  18.8999786  69.0253372 168.7365265  18.5567818
  68.2871475 168.8549652  17.8777046  68.6214828 168.6004944  19.8961716
  69.2438736 169.3204803  20.4275398  67.1604080 168.9423981  20.0971680
  66.6490402 168.8160248  19.1428947  66.7411346 168.2269135  20.8045597
  66.9048004 170.3610992  20.6203880  67.3322144 171.1673584  20.0242672
  65.3864975 170.5160522  20.7938232  65.0775452 169.8885803  21.6298409
  65.2462540 171.5447083  21.1259251  64.8506088 170.2738342  19.8760815
  67.5412140 170.5481873  21.9993191  68.5849457 170.8168945  21.8364887
  67.0944748 171.4124603  22.4908047  67.4629364 169.7121124  22.6942654
  68.8430405 167.1091461  20.4443645  68.3716354 166.2336121  19.7543144
  69.5023117 166.9041443  21.5892849  70.3852158 167.8809357  22.2116451
  69.8230591 168.7667236  22.5073700  71.1427155 168.1516418  21.4761143
  70.9383011 167.1801605  23.3974113  70.2639542 167.3454742  24.2376690
  71.8839493 167.6518860  23.6644459  71.0325851 165.6932220  23.0354576
  70.9978943 165.1029510  23.9511356  71.9638443 165.4892883  22.5070076
  69.7653885 165.5444946  22.1461124  70.0914764 164.8683167  21.3558197
  68.5497589 164.9819794  22.8586922  68.1750259 165.5191040  23.9134026
  67.9124603 163.9427795  22.3561001  68.2359848 163.5008698  21.5074883
  66.6704102 163.3637543  22.9329700  66.8276367 163.3465424  24.0114326
  65.3383865 164.2053833  22.6665783  64.7804871 163.5895996  21.9611187
  64.4567566 164.2231598  23.9469242  65.0139847 164.3444672  24.8758392
  63.6164589 164.8973236  23.7810841  63.9963493 163.2475586  24.1028900
  65.5318832 165.6491852  22.0610638  65.9837265 166.3030090  22.8070145
  66.1763000 165.4641418  21.2016582  64.2471085 166.3491821  21.5800705
  63.7991638 166.7516632  22.4886169  64.4674835 167.1251831  20.8470364
  63.5917435 165.6164246  21.1092644  66.4343643 161.9953308  22.4909382
  66.9850159 161.5779419  21.4569111  65.6124725 161.1890717  23.2031994
  65.1619263 161.4763489  24.0602779  65.1676407 159.8627014  22.7017498
  65.9947052 159.2935791  22.2772942  64.6176910 159.0902710  23.9479599
  64.3860855 158.0555573  23.6953259  65.3532562 158.9821930  24.7450581
  63.3147507 159.7398529  24.5076962  63.4919395 160.7037811  25.2826729
  62.2460747 159.1937714  24.1073036  64.0624466 159.9377289  21.6294441
  63.3540001 160.9396362  21.4572449  63.9665680 158.8563538  20.8827286
  64.5060349 158.0702209  21.2160130  63.3562737 158.7328491  19.5603886
  63.7822533 159.5145416  18.9314194  63.4271278 157.3919525  18.8092842
  63.1153030 156.6251984  19.5184708  62.7412300 157.3953094  17.9621525
  64.8210602 156.9977875  18.3449402  65.7595367 157.8389435  18.3117123
  65.0518341 155.7801208  18.0192795  61.8527603 159.0570068  19.7017326
  61.3683167 159.7692566  18.8632431  61.2010612 158.6845551  20.7909317
  61.7214241 158.3389282  21.5845680  59.7289581 158.8548431  20.9701691
  59.3105659 158.3974609  20.0735855  59.2422829 157.9609375  22.1838551
  59.6527634 158.2174377  23.1604900  58.1813850 158.1632233  22.3310871
  59.3257446 156.9014282  21.9418049  59.3478470 160.3372650  21.0138226
  58.3730392 160.8005066  20.3773594  60.1323128 161.1652527  21.6729336
  60.8878250 160.7763824  22.2189026  60.0339851 162.6251831  21.8019428
  58.9993477 162.8768005  22.0350037  60.8210983 163.0090942  23.0780239
  60.4768677 162.2882080  23.8196068  61.8687096 162.7735443  22.8905907
  60.6641693 164.4899445  23.5622082  61.4479218 165.0171661  23.0182819
  59.3273315 165.1821747  23.3431797  58.5645370 164.6342010  23.8963127
  59.2862358 166.2183685  23.6789227  59.1433868 165.1623993  22.2689953
  60.9619522 164.6312408  25.0625534  61.9569473 164.2553253  25.3008213
  60.9216995 165.6947021  25.2982101  60.2194557 164.0582733  25.6179810
  60.4230576 163.2790985  20.4992638  59.7516441 164.2713623  20.1388969
  61.4813766 162.7967987  19.8061543  61.8186874 161.9004517  20.1268883
  61.8705254 163.2725677  18.4283714  61.9642563 164.3574677  18.3805256
  63.2675667 162.6870728  18.0494308  63.2067680 161.6658325  18.4255791
  63.4795647 162.6287689  16.9818363  64.3507614 163.5233765  18.7166080
  64.2866364 164.5538177  18.3670368  64.0621414 163.5465088  19.7674465
  65.7836380 162.9742126  18.6639080  66.5419083 163.6273346  19.0958366
  65.8615417 162.1633148  19.3881149  66.3819656 162.6547546  17.3137608
  65.9910660 161.8408966  16.8610630  67.2539749 163.3895721  16.5412521
  67.7261887 164.4999237  16.9757614  67.4055862 164.8537598  17.8657703
  68.2345428 165.1080017  16.3497314  67.7102203 163.0389862  15.3724155
  67.4000244 162.1526184  15.0006275  68.6278839 163.3408813  15.0776930
  60.7465591 162.8667603  17.3853264  60.6147346 163.6982574  16.5068760
  59.8491135 161.8487701  17.5514336  60.1292725 161.1153717  18.1868286
  58.5750923 161.7385712  16.7969551  58.7553902 161.8419647  15.7269526
  58.0985832 160.2901306  17.0227680  57.9188995 160.2065735  18.0946045
  56.7674408 160.1635590  16.2690392  56.8284798 160.4301910  15.2139149
  56.3984756 159.1379547  16.2588005  55.9516258 160.7107391  16.7414303
  59.0294609 159.2289429  16.4072971  58.8642197 159.1979065  15.3303413
  60.0901375 159.3673096  16.6168690  58.6300011 157.8381500  16.9887791
  57.7468567 157.3912964  16.5321674  59.3301125 157.1398773  16.5301208
  58.6883430 157.7783508  18.0755692  57.6260681 162.8515167  17.2380619
  57.0559273 163.5905609  16.3793716  57.4340019 163.0593262  18.5557251
  57.9418144 162.4806976  19.2094955  56.5063744 164.0356293  19.0883408
  55.5405693 163.7139740  18.6986485  56.4164886 163.9953461  20.6497192
  57.3572235 164.3202057  21.0942135  55.7037468 164.7831421  20.8935947
  55.9497528 162.7146606  21.3489628  56.7881584 162.0199432  21.3992043
  55.8132668 162.8782043  22.4179497  54.7315483 161.8857880  20.8072529
  53.7843704 162.3641052  20.1537743  54.6205788 160.6215820  21.1553764
  53.8782005 160.0883942  20.7256241  55.2671318 160.2083740  21.8121300
  56.8716354 165.5301361  18.6565819  56.0403252 166.3917084  18.3735428
  58.2076454 165.7115326  18.4356174  58.8813934 165.1661224  18.9539833
  58.7702217 166.8800659  17.7447338  58.3128662 167.7260590  18.2577877
  60.2291412 167.0218964  18.0335960  60.3961143 166.7362671  19.0721684
  60.8535385 166.4491425  17.3479080  60.8290253 168.4858398  17.9123516
  60.6765442 168.7956085  16.8784809  60.0651474 169.3816223  18.8337631
  60.1671638 169.0225677  19.8578568  60.5076370 170.3777618  18.8332596
  59.0596199 169.6153870  18.4839497  62.3125763 168.5116425  18.2091637
  62.9167786 167.8119965  17.6316414  62.6842651 169.5280304  18.0792427
  62.4227715 168.3382568  19.2796288  58.4009018 166.8407288  16.2408352
  57.8252373 167.7286377  15.7509098  58.7824249 165.7997284  15.4987087
  59.2926712 165.1028748  16.0222912  58.6630745 165.7045898  14.0383444
  59.2507095 166.4981384  13.5767527  59.1933098 164.3106079  13.5557537
  60.1882133 164.0168762  13.8904018  58.6561165 163.6072845  14.1920471
  58.9193611 163.8063049  12.1064415  57.8674088 163.9202423  11.8446922
  59.7805862 164.6777344  11.2061090  60.8110123 164.3351135  11.1115971
  59.4987755 164.4670563  10.1744595  59.6948891 165.7397156  11.4361534
  59.1736107 162.3567200  11.8585072  58.5868835 161.7353363  12.5350742
  58.8720703 162.2393799  10.8176403  60.2139969 162.0593719  11.9899883
  57.1739311 165.8400726  13.6068907  56.8971291 166.2472076  12.4820042
  56.2745895 165.4219818  14.4741316  56.5610237 165.0779266  15.3794928
  54.7902107 165.5280609  14.3277626  54.5072975 165.1501465  13.3452978
  54.1144066 164.7197876  15.4746542  54.8054810 164.2906494  16.2001534
  53.5126228 165.3823547  16.0967274  53.1965370 163.5925140  14.9599180
  52.2973785 163.9966278  14.4948282  53.6519127 162.9050140  14.2471247
  52.7329216 162.8120270  16.2306805  53.5956459 162.3186035  16.6782894
  52.3970947 163.5143127  16.9936428  51.6460571 161.8675079  15.7334967
  50.8721848 162.4320679  15.2134018  52.1441994 161.1544647  15.0766020
  51.0154762 161.2448578  16.8979664  50.8053131 161.9727325  17.5658989
  50.1794243 160.7744598  16.5819988  51.6258163 160.6531982  17.4434185
  54.1998062 166.9694061  14.3190289  53.0785866 167.1075897  13.7899675
  54.8882217 167.9096375  14.9666300  55.7653160 167.6888580  15.4161406
  54.4628830 169.2828979  15.0912771  53.7255363 169.3361511  15.8922653
  55.6541367 170.1625061  15.6136417  56.4943428 170.0027924  14.9378910
  55.3017921 171.6763458  15.5243540  54.2822075 171.9213104  15.8219070
  55.9632874 172.1274872  16.2639542  55.6253281 172.1352997  14.5901184
  56.0853462 169.7730560  17.0712204  56.3080750 168.7062073  17.0886574
  57.0208244 170.2915192  17.2814178  55.0446968 170.1157990  18.1272717
  54.2079086 169.4187469  18.0824184  55.5661354 169.9939575  19.0766697
  54.7480164 171.1567230  17.9986038  53.8906403 169.8488312  13.7629271
  54.4347992 169.6997528  12.6962337  52.8098907 170.6554260  13.8539991
  52.4245033 170.8204193  14.7728853  52.2231789 171.3175049  12.7612162
  52.2431335 170.6247101  11.9199495  51.1728172 171.5182495  12.9722862
  52.9622269 172.5729828  12.4711695  53.3528976 172.7273407  11.3193235
  53.2081718 173.4919739  13.4164467  52.8791313 173.2662964  14.3442945
  53.8371925 174.7944336  13.0481672  54.0973434 174.7758636  11.9898300
  52.8070869 175.8902588  13.4586496  51.8654289 175.7713470  12.9226999
  52.6019135 175.7377930  14.5182533  53.3785896 177.2081451  13.2603436
  53.2304039 177.4532471  12.3440657  55.1559868 175.0915680  13.7836275
  55.2645226 174.6415558  14.9251852  56.0289383 176.0276794  13.2448406
  55.9303322 176.2446136  12.2633543  57.3028984 176.3613129  13.8984594
  57.8746452 175.4495239  14.0712013  58.1090546 177.2263031  12.9581652
  57.4626350 178.0769348  12.7421398  58.9698677 177.6843567  13.4452724
  58.2969017 176.6613159  12.0451431  57.0813103 177.0675659  15.2622309
  57.8692245 176.8816376  16.1664162  56.0431633 177.8216553  15.3713284
  55.4076996 177.8631592  14.5873871  55.5675926 178.4030914  16.6485157
  56.2537613 179.1630859  17.0222340  54.1945953 179.1463165  16.4312840
  53.5754890 178.4462433  15.8703098  53.5694351 179.4389954  17.8675919
  54.1881905 180.0392914  18.5345898  52.6062737 179.9443054  17.7963276
  53.4287910 178.5087433  18.4180145  54.4852867 180.4829559  15.7760105
  54.9906731 181.1507111  16.4737225  55.1420898 180.2658081  14.9336567
  53.2146263 181.1556396  15.2286615  52.5742874 181.4982758  16.0414753
  53.4756584 182.0704498  14.6966209  52.7105255 180.4659576  14.5516615
  55.5337143 177.3477783  17.7393150  56.2800598 177.4222565  18.7105179
  54.7383842 176.2774658  17.5176620  54.2322769 176.1810150  16.6489544
  54.7581062 175.1224213  18.4179916  54.6251907 175.3971405  19.4643974
  53.7549400 174.1139832  17.9761314  54.0722961 173.6694031  17.0328732
  53.8877831 173.2754974  18.6598072  52.2755623 174.4351044  17.9358635
  51.9243851 174.2831726  18.9564953  52.1749268 175.5093079  17.7808094
  51.5338783 173.7663879  16.8027687  51.8965302 172.8093872  16.1359367
  50.2393341 174.1443176  16.6909294  49.7396469 173.6450195  15.9690475
  49.9125938 175.0203552  17.0729198  56.0934868 174.4213257  18.4482727
  56.5130043 174.0109100  19.5275707  56.8408661 174.3094330  17.3391590
  56.3628426 174.5320892  16.4777527  58.0822601 173.5104370  17.4332790
  57.9563484 172.5358734  17.9049168  58.6565208 173.2146912  16.0265980
  57.8107300 172.8271790  15.4586401  59.0166893 174.1481476  15.5941181
  59.7529716 172.0989532  16.0129108  60.6804657 172.5764465  16.3289261
  59.5154877 171.3236084  16.7413006  60.0430336 171.4781647  14.6691790
  61.0132484 170.9853210  14.7315369  59.3267670 170.7240295  14.3430414
  60.2245407 172.5231171  13.5971251  61.0009918 173.1668701  13.6500320
  59.4059715 172.7513885  12.5893068  58.3278847 171.9921722  12.2611008
  58.1216736 171.1003876  12.6880531  57.8174248 172.3413391  11.4625950
  59.6232872 173.7459869  11.7632694  60.4334755 174.3404846  11.8646460
  58.9676666 173.9833527  11.0325689  59.0527458 174.1531525  18.3688087
  59.6472778 173.4829254  19.2666378  59.1660080 175.4747925  18.3202896
  58.5842743 175.9806671  17.6677685  59.9251633 176.3207855  19.2216167
  60.9114227 175.8860779  19.3841705  59.9142342 177.7443542  18.7164841
  58.9035149 177.8787079  18.3311291  60.0350571 178.4948273  19.4976921
  60.9672928 177.8729248  17.5798359  61.1066132 176.9723663  16.9817486
  60.4679604 179.0346375  16.6162205  60.3162155 179.9473572  17.1924381
  61.2641525 179.2177277  15.8946571  59.5350037 178.8521729  16.0829372
  62.3009567 178.3400116  18.1809921  62.5499115 177.5683746  18.9094830
  63.0300369 178.3693695  17.3712521  62.2095261 179.3584442  18.5585251
  59.4370346 176.2753601  20.6455307  60.2637215 176.1536713  21.5355492
  58.1169205 176.2951202  20.8975735  57.5403748 176.3151093  20.0685406
  57.6300392 176.0328522  22.2806377  58.0324631 176.7833252  22.9610329
  56.0789795 176.1841125  22.2121143  55.6221809 175.5653076  21.4397678
  55.7323303 175.8592834  23.1931477  55.6972733 177.6934814  22.1160469
  55.9931374 178.1723328  23.0494671  56.2563324 178.2445526  21.3598232
  54.1597557 177.9466705  21.9195900  53.9483528 179.0153351  21.8826027
  53.8678627 177.5941315  20.9303398  53.4017868 177.2170410  23.0486851
  52.9920998 176.3455200  22.7442112  53.2476196 177.5239258  24.3036556
  53.5671272 178.6846466  24.7642326  53.9477043 179.3672791  24.1244793
  53.2396126 178.9439087  25.6838093  52.7369919 176.6321869  25.1027298
  52.6627083 175.6962585  24.7304153  52.5569878 176.8349457  26.0756588
  58.1007080 174.7054749  22.8190079  58.6254807 174.6252899  23.9080887
  57.9558907 173.6550598  22.0464077  57.4056320 173.7374878  21.2034836
  58.2738762 172.3400421  22.5267944  57.7700119 172.1492157  23.4743233
  57.8468208 171.2781219  21.4519386  56.8082924 171.4023132  21.1451263
  58.5060349 171.4727631  20.6059761  58.2406540 169.6402588  22.0474472
  57.5843201 168.8921814  21.1561012  59.7744904 172.1853027  22.8197536
  60.1842575 171.5575714  23.8334274  60.5494118 172.7476654  21.8993301
  60.1397400 173.2298737  21.1120872  61.9731712 172.8805847  22.1212749
  62.4065208 171.8807831  22.0949802  62.6317978 173.6743622  21.0224972
  62.1423683 174.6387634  20.8864632  63.6470680 173.9254913  21.3295288
  62.6567879 172.9864197  19.6382008  63.3984375 172.1906586  19.7075310
  61.7388763 172.4273224  19.4567089  62.8765106 173.9789276  18.4620781
  63.3320312 175.1175537  18.6436539  62.4602852 173.5533752  17.3192940
  62.3233185 173.4800110  23.4777317  63.2285156 172.9660950  24.1559334
  61.6620827 174.6207123  23.8502197  60.9392052 174.9928741  23.2510185
  61.9156151 175.2743378  25.1355038  62.9910278 175.4406281  25.1983299
  61.2843704 176.6657410  25.1541824  60.2229652 176.6155548  24.9112701
  61.2705040 177.1244507  26.1428661  61.8766212 177.6782837  24.1358604
  62.0688095 177.2243652  23.1636772  60.9212303 178.8288269  23.9138699
  60.7158585 179.3525543  24.8474827  61.4482536 179.4922333  23.2281437
  59.9876633 178.5829926  23.4077835  63.2365456 178.1912537  24.5194473
  63.9438591 177.3761749  24.6725807  63.7536774 178.9057159  23.8789673
  63.0298767 178.7907104  25.4060459  61.4973602 174.5374908  26.3712540
  62.1561394 174.5991364  27.4009972  60.4247322 173.7305450  26.2464886
  60.0199203 173.6713562  25.3230572  59.9113541 172.7383881  27.1846428
  59.7705460 173.2708282  28.1252670  58.5429268 172.2163086  26.6053219
  57.9000626 173.0682526  26.3838978  58.6174774 171.6529541  25.6751785
  57.6737175 171.3690186  27.5468636  58.1442795 170.9731140  28.6235447
  56.4602966 171.2009888  27.2302189  60.9506912 171.6340942  27.5022202
  61.1577721 171.4142914  28.6777534  61.6460152 171.1296082  26.4626369
  61.2537689 171.4205933  25.5785713  62.8051453 170.2392273  26.4940605
  62.4718857 169.4751434  27.1963520  63.1058044 169.5566406  25.0980453
  63.3308983 170.3352203  24.3691826  64.3558426 168.6943054  25.2545357
  64.1665115 167.9181213  25.9960194  64.4309998 168.1043549  24.3410759
  65.2564392 169.2824097  25.4310589  62.0092888 168.5563049  24.5529881
  62.2821350 167.5121918  24.7062988  61.0077515 168.7136688  24.9533119
  61.9218178 168.7667389  23.0002842  62.8698730 168.8312988  22.4663219
  61.3396835 167.9960480  22.4950600  61.3750610 169.6760406  22.7505970
  63.9438057 171.0320129  27.1387405  64.4964371 170.6226807  28.1603260
  64.3860397 172.1712646  26.5868053  63.8914261 172.4458008  25.7500916
  65.5844193 172.9270020  27.0268974  66.4599152 172.2805176  26.9663830
  65.8349075 174.1405334  26.0707836  64.9925003 174.8204498  25.9436913
  66.6697083 174.7545471  26.4087143  66.3404007 173.6423340  24.7195988
  67.2109070 173.0137787  24.9073372  65.5479279 172.9624481  24.4068012
  66.4800491 175.0111389  23.5161114  67.2450562 174.2750092  22.1419239
  66.6168289 173.4375610  21.8384666  67.5701218 175.0248566  21.4207001
  68.1511765 173.7812347  22.4929562  65.4236450 173.3561401  28.4545765
  66.4734344 173.4016724  29.0459824  64.2614288 173.6415253  28.9780025
  63.4152451 173.7834625  28.4451618  64.1753693 174.0200195  30.4064980
  64.8704681 174.8339691  30.6124802  62.7439041 174.5799408  30.6715050
  62.0146561 173.8561401  30.3076248  62.6738663 174.7436829  31.7468586
  62.4783020 175.9798279  30.0324554  63.3828392 176.6694183  29.5498047
  61.2118950 176.4167480  30.0620041  60.9885597 177.3514709  29.7513371
  60.5511551 175.8064728  30.5214558  64.4735184 172.8554840  31.3661804
  65.0729294 172.9438629  32.4586792  63.9380112 171.6809082  30.9629650
  63.4898758 171.7006836  30.0580425  63.8206749 170.4410706  31.7668953
  63.8624992 170.6771240  32.8302078  62.4505997 169.8222351  31.4649181
  62.4205933 169.7997894  30.3755627  62.4060898 168.7991791  31.8383999
  61.3195152 170.7145844  32.1027451  61.4077950 170.5532684  33.1771202
  61.4502258 171.7864685  31.9541206  59.9252357 170.2973785  31.6290073
  59.9459000 169.9734497  30.5884571  59.6635666 169.4340210  32.2407684
  58.8264809 171.3929138  31.8181038  58.8198738 171.7217712  32.8572884
  59.0647545 172.2643890  31.2083073  57.4688683 170.8731842  31.4580498
  57.1757317 170.0620728  31.9836597  56.7961693 171.5746613  31.7328320
  57.4153938 170.7950745  30.4524956  64.9573517 169.4439850  31.5170650
  65.0500412 168.4085541  32.2580338  65.7751083 169.6409912  30.4785461
  65.6230011 170.4135437  29.8459969  66.9459152 168.9403992  30.1616726
  66.8377686 167.8618622  30.2763481  67.3548508 169.4331512  28.7608471
  66.5114059 169.3924561  28.0716114  67.6129379 170.4879456  28.8552971
  68.7713242 168.6190491  28.0334854  68.3124695 167.3931732  27.7659550
  68.0784760 169.2244263  31.2571602  68.4228516 170.3764648  31.5256348
  68.7383118 168.1752319  31.7463226  68.5889511 167.2489166  31.3725166
  69.7511902 168.3540649  32.8249550  70.2388306 169.3094635  32.6312485
  69.1644669 168.4217834  34.2648811  70.0359573 168.5870056  34.8983612
  68.2318497 169.6385498  34.5862541  67.2560577 169.3363037  34.2060051
  68.2648544 169.7831421  35.6661186  68.6503296 170.5367432  34.1321449
  68.4857025 167.2465057  34.5518150  67.8559570 167.0974274  33.8427391
  70.9185562 167.3790588  32.7084999  71.7525177 167.4805603  31.8350124
  70.9280930 166.3066101  33.5312157  70.2222824 166.2694855  34.2527046
  71.6913452 165.0994415  33.3739548  72.7425079 165.3500824  33.5165672
  71.3998947 164.1296082  34.5008011  71.7044373 164.5841980  35.4435120
  70.3345947 163.9049988  34.4479752  72.2036819 162.9380493  34.4620552
  72.1284866 162.5394745  35.3321571  71.4561157 164.3963165  31.9760456
  70.2939148 164.2160339  31.5059471  72.4939117 163.8223419  31.4061832
  73.4116745 163.9160156  31.8173218  72.3526688 162.7822876  30.3259201
  71.2791214 162.6007080  30.2746906  72.6969681 163.3850861  28.9198761
  73.7858047 163.4192200  28.9567585  72.5681992 162.6542664  28.1214809
  72.0554199 164.7482452  28.4288464  71.9896164 165.4702911  29.2427368
  72.7279739 165.4828491  27.2837601  73.0074463 164.8275909  26.4587593
  72.1693039 166.3222504  26.8697548  73.6892853 165.7648315  27.7132664
  70.6493683 164.4015350  27.9437218  70.0965576 163.8265381  28.6866169
  70.0582581 165.2459564  27.5892715  70.8093033 163.6938019  27.1303062
  73.1284714 161.4655609  30.6526279  74.3549423 161.3295593  30.9227047
  72.3968811 160.3248291  30.5827045  71.4261703 160.4487305  30.3327751
  72.8514786 159.0237579  31.1538029  73.8440247 159.0518341  31.6034374
  71.8383331 158.6080627  32.2017593  70.9364929 158.3516083  31.6458702
  72.0725784 157.6259460  32.6124611  71.6342239 159.8322754  33.5155983
  70.7081375 159.2529297  34.2847557  72.9287643 157.9073792  30.0281200
  72.4138336 158.0336151  28.9268723  73.6528244 156.8153076  30.3530388
  74.1115723 156.7412262  31.2497902  73.6159821 155.6087036  29.5149765
  73.8087997 155.8886719  28.4793396  74.7795105 154.6792603  29.8777790
  75.6630859 155.1729126  29.4731770  74.7957230 154.5603485  30.9611511
  74.7099380 152.9790039  29.1170349  73.7568741 152.4675446  29.9012337
  72.2265701 155.0181580  29.6125221  71.7887726 154.7631226  30.7409000
  71.6413422 154.6216278  28.4750843  72.1630478 154.8335114  27.6366138
  70.2070847 154.1626892  28.4190388  69.5281754 154.8488464  28.9253693
  69.7510147 154.0365448  26.9589882  70.0099182 154.9211884  26.3772049
  70.2859039 153.2220459  26.4705391  68.2440186 153.7931213  26.7875042
  68.1145172 152.7831421  27.1764565  67.7297592 154.4784546  27.4612560
  67.8257904 153.8345184  25.3451729  68.5725479 153.2485657  24.8093300
  66.8376465 153.3818817  25.2627792  67.9481506 155.2768250  24.8558655
  67.2830200 155.8317566  25.5174980  68.9764786 155.6336823  24.9132290
  67.3825531 155.4526520  23.4302692  66.4547043 155.0781097  23.2927494
  67.3240585 156.4085388  23.1093979  67.9664993 155.0538177  22.7091331
  70.0891953 152.8007202  29.1374912  69.1059113 152.5916443  29.9011993
  71.0098724 151.8512573  28.9113274  71.8265457 152.1273041  28.3850689
  70.8711014 150.5290070  29.5466499  69.9404755 150.0881500  29.1893044
  72.0069122 149.6548157  28.9313412  71.9301987 149.7538757  27.8485661
  72.9622040 150.0446472  29.2828217  72.0170975 148.1355286  29.2630157
  72.3999023 148.0836487  30.2822666  71.0325928 147.6679077  29.2769833
  72.7919998 147.2783051  28.2613640  73.4200516 147.7951660  27.2655239
  72.8933258 145.9931946  28.4185505  73.3456497 145.5160828  27.6518192
  72.5925751 145.4634399  29.2241592  70.8050842 150.5506744  31.1019115
  70.1827393 149.6823578  31.6911392  71.5130920 151.4795990  31.8071117
  72.1906738 151.9993286  31.2678051  71.4240570 151.7770538  33.2436409
  71.2928543 150.8822479  33.8520699  72.7258224 152.4670563  33.6231346
  72.7412872 153.4796600  33.2200317  72.7918320 152.5141602  34.7101173
  74.2122116 151.5141296  33.1979485  74.4876862 151.0998230  34.4378510
  70.2010498 152.6663208  33.5921898  69.6938171 152.6584015  34.7208176
  69.7585602 153.4370422  32.5798302  70.1670380 153.1915588  31.6893272
  69.0030365 154.7441101  32.7259674  68.9069443 155.1549988  31.7209625
  67.5375900 154.3473816  33.0996017  67.6264343 153.7934113  34.0341187
  66.9190063 155.2324982  33.2480316  66.8642960 153.3748016  32.0866852
  67.0888214 153.6313324  31.0513744  67.2365799 152.4077606  32.4248123
  65.3626709 153.3190918  32.2404060  64.7034378 154.2543030  32.7283020
  64.7140961 152.3390503  31.7363968  63.7146606 152.4755554  31.7873135
  65.1421738 151.4944305  31.3850155  69.5735550 155.7725525  33.7251511
  69.3308716 156.9572754  33.4458694  70.2822800 155.3909302  34.7653046
  70.2108231 154.4154968  35.0173416  70.6329575 156.2639160  35.8987045
  69.9252090 157.0928040  35.9104347  70.2907639 155.5311279  37.2366905
  70.3932419 156.2518921  38.0479126  69.2541504 155.1953125  37.2642708
  71.2856903 154.4173889  37.6908722  72.2537766 154.1143646  36.9869995
  71.0124512 153.7037659  38.6675529  72.0846710 156.8124084  35.9965897
  72.3725967 157.7565765  36.7229118  73.0162735 156.2284851  35.2394600
  72.7093201 155.5180054  34.5905533  74.4308395 156.5262451  35.3468895
  74.6533737 156.7595367  36.3881187  75.2830276 155.3249817  34.9840240
  74.9566193 155.0509491  33.9807968  76.7862396 155.5715332  35.1155624
  77.1369781 155.7898865  36.1242294  77.1448669 154.6020203  34.7698441
  77.1847305 156.3501740  34.4651642  75.1244125 154.2191772  35.8362198
  74.1942825 153.9827271  35.8596535  74.7556610 157.7153473  34.3782806
  74.9129105 157.5279083  33.1850433  74.9209900 158.9250183  34.9519043
  74.5752411 158.9657593  35.9000092  75.3179779 160.1336670  34.2879524
  74.5617065 160.3605194  33.5364914  75.5318069 161.1906586  35.3736191
  74.6257324 161.3700714  35.9523659  76.3706894 160.8781433  35.9954720
  75.9148560 162.6471863  34.8545799  76.7808456 162.6658936  34.1929092
  75.1060562 163.0500793  34.2449570  76.3150558 163.6117859  36.0307312
  76.3020782 163.2002869  37.1876221  76.6617966 164.7898254  35.7753792
  76.6367874 159.9352417  33.4843216  77.6188049 159.5003510  33.9830055
  76.6304703 160.4845276  32.2439423  75.8020554 160.8581696  31.8032341
  77.8407669 160.5877075  31.4225998  78.6844864 160.0642242  31.8722725
  77.6369019 159.6913757  30.1697807  76.5755005 159.5861359  29.9451714
  78.3731461 160.2554016  28.8936424  79.3971481 160.4693298  29.1998329
  78.3663330 159.6122284  28.0136528  77.9360275 161.2347107  28.6987591
  78.1526718 158.2524109  30.3250771  77.9933853 157.6775360  29.4128075
  79.2066193 158.3450623  30.5872192  77.4645844 157.3434448  31.3090630
  76.3944778 157.2160950  31.1455021  77.9944077 156.3994751  31.4367809
  77.3977432 157.8846436  32.2528496  78.2482986 162.0012207  31.2293472
  79.4232254 162.2716675  31.1664963  77.2375412 162.8255310  30.9371471
  76.2870636 162.5282440  31.1054096  77.3827820 164.2716827  30.9114552
  78.1049042 164.5870361  31.6645718  77.9517899 164.6797180  29.5328846
  78.8511887 164.1507721  29.2175865  76.9088287 164.7227631  28.3841496
  76.1766739 165.5295868  28.4170017  77.4045486 164.7387085  27.4135246
  76.3040619 163.8236847  28.5025120  78.4449081 166.0519409  29.5925350
  79.3946991 165.9969025  29.7208748  76.1531448 165.0441895  31.4079056
  75.1040497 164.5222778  31.8587036  76.1912079 166.3816223  31.4148731
  77.0544205 166.8148804  31.1194706  75.1506119 167.3564301  31.8292580
  74.1533356 166.9262695  31.7371235  75.3764191 167.6477661  33.2899704
  75.2601242 166.7482910  33.8945618  76.6103058 168.2944489  33.7640762
  76.6585541 169.3054504  33.3595467  76.7451859 168.2784576  34.8455811
  77.5080643 167.8101654  33.3798790  74.3835449 168.4900818  33.8464394
  74.7725525 168.9579163  34.5890121  75.0498810 168.5966034  30.8955021
  76.0479507 168.9911804  30.2791958  73.9559555 169.3369446  30.9586506
  73.2434235 168.9376373  31.5527573  73.6072159 170.4477539  30.0784130
  73.4151993 170.0020294  29.1024170  72.3147125 171.0500946  30.6897106
  71.4683609 170.3648071  30.7362995  72.5067902 171.3360596  31.7238407
  71.9133377 172.2727051  29.8870525  72.7008591 173.0174255  30.0023804
  71.9019089 171.9718475  28.8394585  70.5634995 172.8818665  30.2691135
  69.8933792 172.0444794  30.0746307  70.6675339 173.1648254  31.3165932
  70.2386856 174.0957947  29.3770714  71.0794144 174.7803040  29.4898262
  70.1289215 173.8005219  28.3335800  69.0383606 174.8173065  29.7674751
  68.9796829 175.0188141  30.7554264  68.9569550 175.7177429  29.3172588
  68.1749802 174.3303070  29.5737991  74.8196793 171.4309540  29.8924484
  75.1282883 171.7521057  28.7530136  75.4287262 171.9580078  30.9660969
  75.0070648 171.7100677  31.8497429  76.3711929 173.0040894  30.9134560
  75.9591370 173.8126831  30.3097115  76.5619202 173.4833527  32.3405952
  77.0229645 172.7292023  32.9784088  77.2740326 174.3044128  32.2577209
  75.3067017 174.1040192  32.9813614  74.4327393 174.7652435  32.3652687
  75.0132828 173.8082581  34.1957550  74.2392197 174.2346954  34.6847191
  75.7176895 173.3389282  34.7468033  77.7294617 172.6016541  30.1632423
  78.4748383 173.4698639  29.7478046  77.8698273 171.2846375  29.9862823
  77.2336578 170.5702667  30.3103905  79.0055923 170.7998657  29.2124043
  79.8693771 171.4067535  29.4838581  79.3571320 169.3216400  29.5806618
  78.5205002 168.6699066  29.3288498  80.1864014 168.9514313  28.9778576
  79.7873688 169.1920471  31.0118484  78.9177551 169.2608032  31.6654186
  80.1510239 168.1666412  31.0779476  80.9602814 170.0830688  31.5857143
  81.7201004 170.7881317  30.8541908  81.2313080 169.9389343  32.7994347
  78.7682266 170.8190155  27.6515331  79.7037048 170.6184692  26.8379707
  77.5128708 170.8486328  27.2187309  76.7439423 170.8993073  27.8716393
  77.0900497 170.9795837  25.8263588  77.5676651 170.1630554  25.2848225
  75.5072784 170.8657684  25.6206837  75.1210251 171.7856140  26.0597820
  75.3133469 170.9645538  24.1058331  75.9565201 170.2245483  23.6295643
  74.3085480 170.7040863  23.7732067  75.4909592 171.9700775  23.7244167
  74.7920303 169.6064758  26.1490688  75.1098480 168.7480774  25.5572472
  75.1737900 169.4470215  27.1575050  73.2582169 169.8117065  26.2233887
  72.7959366 169.8278351  25.2364044  72.8151321 168.9917908  26.7886486
  73.0797043 170.7994080  26.6484299  77.7213974 172.2340851  25.1412907
  77.5079727 173.4126892  25.5242996  78.5059128 171.9679718  24.0515575
  78.5584412 171.0004578  23.7664795  79.1210556 172.8860321  23.1665401
  78.6125641 173.8460236  23.2556801  80.6028900 173.1692200  23.5529881
  80.8766098 174.2167358  23.4270573  80.6740265 173.0575714  24.6349201
  81.6074066 172.2923737  22.8762627  81.9497299 171.0473480  23.4161911
  81.3554459 170.6648865  24.2328606  82.9133911 170.2305450  22.7886295
  83.2191772 169.3044891  23.2526398  83.6588898 170.7542267  21.7398510
  84.4631500 170.2030487  21.2753429  83.2911148 171.9661102  21.1373615
  83.8304977 172.2852631  20.2578125  82.2243500 172.7299805  21.7105179
  81.9648056 173.7186737  21.3619156  78.8828201 172.4873505  21.7115898
  78.4647217 171.3643341  21.4043941  79.0793304 173.5137024  20.8223171
  79.2664261 174.4055634  21.2578373  78.9436874 173.4545898  19.3776169
  78.3663712 172.5840454  19.0662308  78.1518326 174.7023773  19.0187969
  78.5128403 175.6503143  19.4177818  78.0707245 174.7038269  17.9318142
  76.8191452 174.4900055  19.3632069  76.3252792 175.2930450  19.1820221
  80.3165283 173.4117584  18.6094055  81.0294495 174.3912354  18.4024506
  80.6873093 172.1919250  18.3082218  80.2248230 171.3759308  18.6828747
  81.8654861 171.9302673  17.4346008  82.6606293 172.6380615  17.6688480
  82.4048080 170.5516205  17.6559696  82.3921432 170.3587341  18.7286930
  81.6564102 169.9401398  17.1518784  83.8201141 170.2747650  17.1107979
  83.8114319 170.4100037  16.0292568  84.9422760 171.1976929  17.6742249
  85.1445389 170.9546051  18.7173462  85.8555756 170.9933777  17.1154327
  84.7659607 172.2725372  17.6329098  84.1706085 168.8089447  17.3607388
  83.3882065 168.1169434  17.0491829  85.0660858 168.5424194  16.7993221
  84.3049927 168.6793823  18.4346352  81.5209045 172.2220306  15.9173250
  82.3704071 172.6463623  15.1483688  80.2007675 172.0035706  15.5874157
  79.6660690 171.6101990  16.3486271  79.6884460 172.1780090  14.2464170
  80.5172729 172.1727905  13.5385218  78.7391968 171.0102997  13.9063177
  79.2391205 170.0518951  14.0464306  77.8462906 171.1827393  14.5072241
  78.3941650 171.0872040  12.5737734  78.2054138 170.2501068  12.1433678
  78.8892593 173.4950867  14.0773430  78.3958054 174.0513611  15.0592861
  78.6913071 173.9612885  12.8294725  79.2407684 173.4477997  12.1552896
  77.6898880 174.8503876  12.3596535  77.6858902 175.7902222  12.9117327
  78.1286926 175.2036591  10.9385929  78.2355270 174.3241119  10.3036947
  77.2259293 175.5352325  10.4255924  79.3257599 176.1829529  10.7086992
  80.2082138 175.6840820  11.1093349  79.4066772 176.4488831   9.1688776
  78.5497208 177.0048828   8.7886162  80.2261658 177.0860138   8.8363113
  79.4155807 175.5226746   8.5942745  79.1359406 177.5189819  11.4267502
  79.1524429 177.3913116  12.5091219  79.9760742 178.1694336  11.1834793
  78.1765442 178.0004578  11.2374439  76.2664719 174.2657623  12.3302889
  75.2914810 175.0150757  12.4086370  76.0594482 172.9362030  12.4615984
  76.8811264 172.3488922  12.4609203  74.8344040 172.2520599  12.8350983
  73.9239655 172.7034149  12.4407911  74.8474045 170.7984619  12.3452463
  75.7658691 170.2987213  12.6531076  73.9773712 170.2948914  12.7666140
  74.5929184 170.8584137  10.5049553  74.6502914 169.5262909  10.4211178
  74.4831772 172.4387970  14.2997446  73.4682693 171.9119110  14.7780161
  75.2630768 173.2071075  15.1174040  76.0658951 173.6787720  14.7260933
  75.1477280 173.2084045  16.5681362  75.5077972 174.1673431  16.9408264
  74.0990829 173.2614136  16.8607540  75.8123169 172.0472260  17.2856426
  76.7399521 171.5087128  16.7335491  75.3930054 171.6644287  18.4676361
  74.2107086 172.1174164  19.2691250  73.3759613 172.1689301  18.5700912
  74.3808746 173.0870819  19.7369976  74.0009232 171.0953064  20.3614845
  73.5078506 170.1943512  19.9964428  73.3453903 171.5603943  21.0977421
  75.4299469 170.8024750  20.7291451  75.4467621 169.8744659  21.3006535
  75.8366394 171.6314545  21.3083706  76.0828018 170.6341400  19.3243504
  77.1171417 170.9356842  19.4895821  76.0639801 169.2115021  18.8219528
  76.6069183 168.3384705  19.5208931  75.3558807 168.8319550  17.7257099
  74.8887558 169.6085968  17.2799187  75.0625534 167.4630585  17.3360424
  76.0233231 166.9760284  17.5028706  73.9437790 166.8874207  18.2193127
  74.1420135 167.0783539  19.2739906  73.0323334 167.4159698  17.9400253
  73.6297302 165.3823853  18.0603333  73.3696060 165.1109314  17.0372314
  74.4451141 164.7313232  18.3755646  72.1929550 164.9655304  18.9369545
  70.9215775 165.3760071  17.6843529  70.8974838 164.5805511  16.9395180
  69.9416733 165.2704468  18.1499195  70.9720535 166.3683472  17.2362099
  74.7316589 167.3970337  15.8472071  73.9178848 168.2634583  15.4039001
  75.3279495 166.4335632  15.1467867  75.9833450 165.8489685  15.6455793
  75.0078125 166.1497345  13.7183046  73.9766769 166.4227905  13.4940109
  75.9814377 166.9693298  12.9199600  76.9798660 166.6239471  13.1881647
  75.7077332 166.8406982  11.8727551  75.9984360 168.0008087  13.2719259
  75.2169037 164.6366882  13.4519196  75.6388779 163.9024811  14.3309660
  74.8147430 164.2413940  12.2573490  74.3640289 164.9425507  11.6869783
  75.0294571 162.8268433  11.7655497  75.0722809 162.2061462  12.6605339
  73.7648468 162.4360962  10.9458981  73.6086807 163.1497955  10.1369829
  73.9095230 161.4985962  10.4089947  72.9003906 162.2854614  11.5925217
  76.3170319 162.6195526  10.9101543  76.6873932 163.5066681  10.1471615
  76.9002228 161.4247131  11.0438786  76.6214142 160.8473358  11.8242607
  78.0938034 160.9576874  10.3955135  78.2798386 161.5229950   9.4823217
  79.3188019 161.3287048  11.2572975  79.2624969 160.6897125  12.1385517
  80.2278595 161.1475983  10.6837835  79.3711090 162.7922974  11.8834648
  79.8202591 163.9399872  11.1495323  80.1618652 163.8832855  10.1265507
  79.9600830 165.2182465  11.6873159  80.2931900 166.0094757  11.0320311
  79.5222015 165.4055939  12.9754496  79.4817200 166.7025299  13.4298134
  79.8180695 167.3395538  12.7952595  79.0597916 164.3509674  13.7887354
  78.7458954 164.4986267  14.8115129  78.9154053 163.0526276  13.1916599
  78.4280701 162.3041229  13.7988081  78.0258560 159.4469604  10.1431160
  77.1025238 158.7692261  10.5472574  79.0071564 158.8617096   9.4365807
  79.8524704 159.3793793   9.2427711  79.0862427 157.4249115   9.1323528
  78.4783859 156.8145905   9.8002834  78.4994888 157.0413055   7.7426381
  78.7764893 156.0103302   7.5225339  77.0086746 157.0926666   7.6947517
  76.5895233 158.0446472   8.0205193  76.5889435 156.9136047   6.7048697
  76.6366959 156.2837372   8.3235474  78.9416351 157.9410095   6.6484623
  80.0315704 157.9440155   6.6369133  78.5959473 157.5629272   5.6863565
  78.5584259 158.9371338   6.8697729  80.4408112 156.7241211   9.1793842
  81.4140778 157.2214813   8.6552668  80.4572525 155.4338226   9.6551943
  79.6427460 155.0847931  10.1398249  81.6358490 154.5319214   9.5066586
  82.5301437 155.1481018   9.5996885  81.6749573 153.4840851  10.6789455
  82.6990051 153.1473541  10.8403540  81.3862305 154.0401917  11.5708437
  80.8236465 152.2782440  10.5871210  79.8538589 152.2488861   9.8543987
  81.1490021 151.2503967  11.2614269  80.5663147 150.4372864  11.4008045
  81.9619675 151.3383026  11.8542805  81.7902069 153.8690338   8.1078415
  80.8596954 154.0103912   7.2865453  82.8781509 153.0790405   7.7808251
  84.0972366 152.9333344   8.5694141  84.1281815 152.1049042   9.2771301
  84.2842331 153.8189697   9.1766977  85.1548233 152.6278229   7.4906216
  86.0141373 152.0598602   7.8471298  85.5256424 153.4856567   6.9296384
  84.4172440 151.7106781   6.6160026  84.4032440 150.7255554   7.0823026
  84.8913803 151.6101074   5.6396875  83.0504227 152.4358826   6.5373511
  83.1715088 153.2298279   5.8004012  81.9428558 151.4647522   6.1296010
  81.5278549 151.4071350   4.9839201  81.3888092 150.7155457   7.0645275
  81.8100433 150.9148102   7.9606028  80.2689896 149.7409363   6.9906435
  80.3789291 149.1184082   6.1026835  80.3517151 148.8521881   8.2063131
  80.1014862 149.5154877   9.0342703  79.7160721 147.9749146   8.0861378
  81.7780533 148.3309784   8.4823608  82.8256836 149.0076447   9.1669798
  83.8305054 148.1468964   9.2496548  84.7045364 148.2819977   9.8695107
  83.5448380 147.0398712   8.5762424  84.1079025 146.2098846   8.6952391
  82.2269058 147.0529022   8.2006254  81.7154312 146.2729797   7.6560826
  78.8588104 150.4439392   6.9688663  77.8362885 149.8082275   7.2157397
  78.8654785 151.7460175   6.7648430  79.7438965 152.2439728   6.7421174
  77.6677780 152.5616608   6.4987235  77.9995041 153.4742737   6.0035610
  76.9807358 152.0274353   5.8424616  76.7975311 152.9161377   7.6958508
  75.9323196 153.7523804   7.4676299  76.9132385 152.3292542   8.9184370
  77.8290253 151.9482880   9.1089582  76.1154022 152.6942139  10.0940943
  75.0676117 152.4421539   9.9306889  76.6358185 151.9620209  11.3599663
  77.0177078 151.0177460  10.9718742  77.5298386 152.5000916  11.6750832
  75.5398788 151.8004608  12.3935032  74.6838760 150.6720886  12.2778835
  74.9736099 149.8461609  11.6451912  73.5134506 150.5269928  13.0562477
  72.8372421 149.6966858  12.9157610  73.2266693 151.5133667  14.0116253
  72.0518570 151.3237305  14.6438046  71.5619431 150.5322571  14.4089689
  74.1086426 152.6305695  14.1844807  73.9362030 153.2877808  15.0239716
  75.1567612 152.8217926  13.2879267  75.7181778 153.7442474  13.2708168
  76.0795670 154.2248383  10.4149771  77.1447067 154.8966522  10.4615154
  74.8745575 154.7692566  10.6474457  74.0737915 154.1538544  10.6351461
  74.6819305 156.2051697  10.8791037  75.5295944 156.6817627  10.3867321
  73.3926010 156.7924805  10.2715721  72.5183868 156.3487701  10.7479792
  73.4109955 158.2808075  10.6841841  74.3263550 158.7146149  10.2816544
  72.6077423 158.8065643  10.1679935  73.3128586 158.4547272  11.7557335
  73.3741074 156.5909424   8.7354822  73.5296555 157.4775848   8.1208725
  74.2432404 156.0081940   8.4303188  72.1803131 155.7935028   8.2071028
  71.3129196 156.4487152   8.2873116  72.3655624 155.5802307   7.1543436
  72.0873642 154.8831177   8.7992792  74.8148117 156.4379578  12.3934870
  74.0818558 155.8802032  13.1822538  75.5928116 157.4465485  12.7225389
  76.2956848 157.6816101  12.0363789  75.9354935 157.8292084  14.0858402
  75.2642365 157.2741852  14.7411766  77.3882217 157.3873444  14.4276752
  78.0808716 157.6909485  13.6427183  77.7037201 157.9441833  15.3099985
  77.4437027 155.9104004  14.6613569  76.8887939 155.2680054  15.7862539
  77.2092056 154.0048370  15.5983734  76.8008575 153.2252960  16.2244530
  77.9385452 153.8135986  14.4965916  78.2941742 152.9079285  14.2256823
  78.0849915 155.0360565  13.8425522  78.5064011 155.2274780  12.8667574
  75.7230530 159.2938385  14.2374954  76.2537918 160.0737762  13.4319229
  74.9175110 159.6519623  15.1908951  74.5629501 158.9678955  15.8439312
  74.5940781 161.0578766  15.5403814  74.9553909 161.7855835  14.8137512
  73.1256714 161.3162689  15.7732277  72.6383362 160.5256042  16.3437061
  73.0679092 162.2105408  16.3937626  72.2361298 161.6392975  14.5232935
  72.7699356 162.4522705  14.0311375  72.1889496 160.7808380  13.8532753
  70.7964935 162.0342865  14.9519272  70.2007294 161.4024963  15.7944489
  70.2686539 163.0312042  14.3692064  75.3225937 161.3204498  16.8530617
  74.8930283 160.7718048  17.8779449  76.3851013 162.2041626  16.9030609
  76.6969986 162.7093964  16.0860176  77.2214127 162.3051147  18.0885181
  76.9028397 161.6423187  18.8930664  78.7604675 161.9626160  17.8859711
  79.3730087 162.4668732  18.6333866  78.9723587 160.4463196  17.7729111
  78.4270020 160.0227356  16.9295540  80.0260391 160.2104340  17.6238518
  78.6443405 159.9709015  18.6972961  79.2078094 162.5820465  16.7378845
  80.1428986 162.4048462  16.6121311  77.0472488 163.6825256  18.6809177
  77.2269745 164.6741791  17.9571381  76.7566223 163.7849884  19.9646683
  76.6253967 162.9237366  20.4756680  76.5984192 165.0284119  20.6675301
  76.2335587 165.9082947  20.1376438  75.6668854 164.7792358  21.8611050
  74.6370087 164.7401733  21.5062504  75.9499969 163.8367157  22.3297482
  75.7076645 165.8271179  22.9538765  76.7714005 165.9678802  23.1455650
  75.0643387 167.0930786  22.4543324  74.0272217 166.9096832  22.1735268
  75.2727585 167.9196320  23.1336536  75.5898972 167.4179077  21.5563526
  75.0466843 165.4500427  24.2711792  75.5687485 164.5995636  24.7096214
  75.1792145 166.2554932  24.9935207  74.0116119 165.1678467  24.0785942
  78.0124359 165.3597260  21.1858406  78.7015686 164.4629059  21.7072659
  78.3935547 166.6089935  21.0285320  77.7525787 167.2776947  20.6259232
  79.7460861 167.0805969  21.4458542  80.3488998 166.1732025  21.4826012
  80.4183807 167.9754791  20.3648472  81.3938675 168.4029541  20.5967827
  80.6997375 167.1497650  19.0791569  79.6947174 166.9130707  18.7298679
  81.1102982 167.8616943  18.3631325  81.3821564 166.3024902  19.1465702
  79.5292816 168.9651947  19.9550896  79.5828094 169.7350922  20.5260410
  79.7647476 167.7575989  22.7985897  78.9943008 168.7008820  23.0854893
  80.5943604 167.2998047  23.7403450  81.1748505 166.4824219  23.6177998
  80.7509842 167.8198547  25.1264648  80.3456268 168.8308563  25.1669235
  79.9722519 167.0527191  26.2108517  80.1902390 167.4808807  27.1892529
  78.4293671 167.2150574  25.9832611  78.1597977 166.5750580  25.1431141
  77.8412552 166.8468933  26.8239059  78.1887054 168.2367401  25.6894302
  80.3796539 165.5580444  26.2901611  81.4512177 165.4608765  26.4645519
  79.9431458 165.0975342  27.1764412  79.9279327 165.0681152  25.4275932
  82.3038788 167.9398041  25.4116554  83.0271759 167.0569305  25.0264130
  82.7682953 168.9297943  26.1674843  82.1667099 169.6235352  26.5880985
  84.1617661 169.0304565  26.7268066  84.8790741 168.9402924  25.9110508
  84.2490005 170.4288025  27.4267921  83.4921341 170.5046844  28.2075005
  85.2023849 170.5211182  27.9470119  84.0831833 171.5880890  26.5167980
  84.9181747 171.7327423  25.4043617  85.6088715 170.9316559  25.1861629
  84.8296661 172.9005585  24.6072445  85.4761887 173.0964508  23.7646046
  83.8526993 173.8383789  24.9187107  83.7928848 175.0154877  24.2195759
  84.5039444 175.0049133  23.5746880  83.0070801 173.6966553  26.0650749
  82.3512878 174.5233154  26.2952232  83.1563263 172.5681458  26.9067554
  82.5892715 172.4737549  27.8210526  84.5053101 167.9538116  27.7162590
  85.6788788 167.5870972  27.8435650  83.5090866 167.4934082  28.5247269
  82.5783691 167.8730621  28.4261398  83.8022079 166.5640259  29.6415462
  84.7324524 166.0139618  29.4995308  83.9911880 167.4950714  30.9130917
  84.7854919 168.2134705  30.7104053  83.1145325 168.1416016  30.9529552
  84.1689529 166.8330841  32.2722969  83.3024826 166.2204895  32.5214081
  85.0658722 166.2216187  32.1735268  84.3973770 167.8815002  33.3067818
  85.2397308 168.5078430  33.0130882  83.5443497 168.5499420  33.1899681
  84.6711960 167.2452087  34.6922684  84.6085663 167.9943085  35.4815865
  83.8869629 166.5304413  34.9416428  86.0845261 166.7179260  34.8302841
  86.8453751 167.3197174  34.5491180  86.3141251 166.4827728  35.7853165
  86.1376343 165.8869171  34.2587013  82.7399826 165.5009918  29.8342533
  81.5583878 165.7805328  29.7794685  83.2257538 164.2542725  30.0168247
  84.2052155 164.0695038  29.8536606  82.4330139 163.1125336  30.5002346
  81.4165192 163.4613342  30.6823826  82.3280945 161.9966583  29.4377747
  83.3321991 161.5733337  29.4637222  81.4536438 161.3531342  29.5342999
  82.2232361 162.5318756  28.4940319  82.9148026 162.5272827  31.8478718
  84.1125870 162.3463593  32.0391960  81.9724503 162.1161041  32.7417145
  80.9844055 162.2352600  32.5694618  82.3094177 161.6970520  34.0812569
  83.2905273 162.1220093  34.2932358  81.2983246 162.2705383  35.1322327
  80.3016586 161.8539124  34.9867554  81.6592178 162.0363007  36.1337318
  81.2141571 164.1376343  34.9571877  82.4083939 164.4338684  35.4776917
  82.4690933 160.2111359  34.1488724  83.5861053 159.8321838  34.5158463
  81.3773117 159.4444427  33.9217720  80.5150070 159.9338379  33.7293510
  81.4234695 158.0110779  34.0468788  82.3112335 157.7559052  34.6255531
  80.1999664 157.5712128  34.8736534  79.2472534 157.8101044  34.4010353
  80.2227402 156.4909821  35.0175896  80.2382126 158.1197815  36.3247032
  80.9928131 157.6613312  37.1742401  79.4306412 159.0984497  36.6138306
  79.3289566 159.3806305  37.5782623  78.7741547 159.3515167  35.8892021
  81.4918365 157.2153473  32.7417030  80.6572723 156.3000641  32.5036812
  82.5750427 157.4644928  31.9571304  83.1648102 158.2736359  32.0895882
  82.9988556 156.6118164  30.8420238  82.2246170 155.8855743  30.5945740
  83.2183075 157.3687744  29.5509262  84.0350113 158.0748596  29.7010536
  83.4942780 156.6406250  28.7882004  81.9735336 158.0077515  28.9939346
  81.4572983 158.5656128  29.7752056  82.1949463 158.9786377  27.9123116
  82.3371582 158.4450531  26.9725456  81.2630157 159.4801788  27.6514111
  83.0585861 159.6061401  28.1324730  80.9579315 157.0055847  28.4754086
  80.6348267 156.2819824  29.2238026  80.0343018 157.5410309  28.2556305
  81.2780762 156.4901886  27.5698814  84.3613968 155.9927063  31.1303596
  85.2213135 156.5843048  31.7697792  84.6202850 154.7481232  30.6199493
  83.8624573 154.5047760  29.9981899  85.9480896 154.1983490  30.4376621
  86.7643204 154.7743378  30.8736801  86.0414505 152.8060303  31.0452995
  85.2771988 152.1633759  30.6082630  87.0047684 152.4008026  30.7355824
  85.9264221 152.8162079  32.5831528  85.9262161 153.8558350  33.2053299
  85.7739105 151.6068115  33.1160126  85.6278915 151.5867920  34.1152039
  85.8692780 150.8349915  32.4715729  86.3129578 154.1810303  28.9298401
  85.4893188 154.4264221  28.0491791  87.5937881 153.9284973  28.7386856
  88.0910263 153.5937958  29.5516033  88.3090286 153.9333496  27.4697285
  87.6899490 154.2977600  26.6499386  89.4536667 154.9524231  27.4696274
  90.0154343 154.4843445  28.2779713  89.9253464 155.0008240  26.4881649
  89.1882248 156.3908386  27.8673534  88.7750397 156.4109344  28.8758049
  90.4830551 157.1493988  27.7793732  90.9711761 157.0469666  26.8101730
  90.4045486 158.2162781  27.9884033  91.2603302 156.7313690  28.4190712
  88.2868958 156.9955139  26.8042736  87.3171616 156.4989014  26.8376293
  88.1234818 158.0619812  26.9593410  88.7954025 156.9361267  25.8419876
  88.7743835 152.5006104  27.1787758  89.3141022 151.8693695  28.1106129
  88.6914825 152.0693054  25.9077015  88.1591339 152.6392822  25.2659645
  89.5260239 151.0121918  25.3040371  90.2845078 150.7290802  26.0338688
  88.6893997 149.7241669  25.1040516  89.2830353 148.8486938  24.8408794
  88.2293091 149.5803223  26.0816650  87.7125931 150.0001526  24.1196499
  86.8979950 149.6207123  24.4573555  90.2136612 151.4186249  23.9824867
  89.9777298 152.5072937  23.3890953  91.0857315 150.5100250  23.5120831
  91.2634964 149.6474304  24.0065098  91.8318329 150.7084198  22.2697887
  92.2369537 149.7360840  21.9895592  91.1789703 151.0903473  21.4849319
  93.0654602 151.5948334  22.4951687  93.6504593 151.6909332  23.5655098
  93.4473877 152.2345581  21.3990555  92.8917007 152.1361694  20.5614204
  94.4051514 153.4012299  21.3427372  94.4847336 153.8279572  22.3425751
  95.8264389 153.0097351  20.7994976  95.7819824 152.6689911  19.7650833
  96.5633850 153.8091583  20.7224560  96.5501709 151.9655304  21.6568356
  95.8650131 151.1179352  21.6723042  97.4876862 151.7236481  21.1561623
  96.8158569 152.3607788  23.1390381  97.3748322 153.2949066  23.1945133
  95.8875961 152.5007172  23.6929779  97.4649277 151.2175446  23.8180523
  98.4444122 151.0913239  23.6064434  96.8933105 150.1583099  24.4144459
  95.6888046 150.1442413  24.8113708  95.1128387 150.9465942  24.6002407
  95.1974487 149.3527985  25.2016468  97.5639954 149.0966492  24.7574425
  98.5224228 148.9631958  24.4681129  97.1674652 148.4127350  25.3860455
  93.9159317 154.4579468  20.3468132  92.9181519 154.2103729  19.7011642
  94.4599762 155.7207336  20.3774166  95.4491882 156.2447662  21.3657398
  96.5054626 156.0658722  21.1648045  95.2538071 155.7612610  22.3228912
  95.1680069 157.7149200  21.4685631  96.0537872 158.3385620  21.5892582
  94.4245529 157.9338074  22.2350273  94.5326004 158.0467682  20.0498028
  95.3541718 158.2688141  19.3687687  93.8038101 158.8519592  20.1427021
  93.9551163 156.7604218  19.5434933  92.8708267 156.7707214  19.6544628
  94.2759705 156.4779816  18.0147953  95.3831940 155.9727783  17.6495514
  93.4209671 156.8133087  17.0976925  92.4880295 157.1252594  17.3266277
  93.7662506 156.8707581  15.6348429  94.7718964 157.2772522  15.5274649
  93.7609482 155.4338074  15.0249081  94.3758469 154.7576141  15.6188517
  92.7383118 155.0602112  14.9725056  94.2348099 155.4921112  13.6565342
  94.7112732 154.6957855  13.4106255  92.9027786 157.8317871  14.9110565
  91.9710922 158.3479767  15.5541010  93.3203812 158.2584839  13.6729984
  94.2174988 157.9551697  13.3218842  92.6676407 159.2693939  12.8282194
  91.9729080 159.8465118  13.4384565  93.6724319 160.2504272  12.1539164
  93.1281586 160.9343414  11.5026665  94.3804855 161.1846161  13.1072168
  95.0253448 160.5525513  13.7177420  95.0583801 161.7949219  12.5104837
  93.7279663 161.8425903  13.6811476  94.6641159 159.4904480  11.5280085
  95.1900482 160.1028290  11.0084085  91.9398880 158.5254364  11.7121964
  91.2039337 159.2598267  10.9994564  92.0836563 157.2176514  11.5378838
  92.6727982 156.6890259  12.1652308  91.4022369 156.5392456  10.3886204
  91.8688049 156.9353638   9.4866734  91.5228271 155.0118103  10.4965973
  91.1704941 154.6696472  11.4696751  90.8699570 154.5604858   9.7494888
  92.9664764 154.3652344  10.3437815  93.5231171 154.4245911  11.2790470
  92.7264862 153.3151093  10.1772070  93.8165970 154.7513123   9.1645403
  93.3512497 154.8070526   8.0062780  95.0474701 154.9041138   9.3820858
  89.9085693 156.9235535  10.3238878  89.1987991 156.6970520  11.3654165
  89.4868469 157.4771423   9.2024965  90.1714096 157.4730072   8.4598923
  88.1160660 157.9522858   8.9283714  88.0111313 158.4106750   7.9450293
  87.3571243 156.5361786   8.8199635  88.0580444 155.7510834   8.5363312
  86.9288177 156.3130951   9.7971439  86.2562485 156.5575256   7.8603559
  84.9611206 156.3826141   8.2812824  84.1876526 156.3155975   7.1881661
  83.1121979 156.2444305   7.1194072  84.9842529 156.4253082   6.1012845
  84.7109909 156.3762970   5.1301889  86.2787857 156.5267029   6.5100498
  87.2022934 156.4837646   5.9517641  87.4973221 158.9006805   9.9768925
  86.2583313 159.0321960   9.9973249  88.2689438 159.5351410  10.8540859
  89.2224808 159.2023926  10.8659821  87.6951218 160.5091553  11.8346500
  87.1079102 159.9941711  12.5949545  88.8952179 161.1779175  12.5548868
  89.5063705 160.4304657  13.0607643  89.4769287 161.8793030  11.9567356
  88.2874527 161.9208069  13.6419611  88.9111862 162.5061035  14.0778465
  86.7767792 161.5807495  11.2716465  87.1079788 162.2907104  10.3367586
  85.6264954 161.8578796  11.9134331  85.5008545 161.4959106  12.8479338
  84.6151352 162.7625122  11.3327131  84.6511002 162.5950470  10.2562532
  83.2623825 162.2778015  11.9786739  83.2806168 162.5420074  13.0360098
  82.4555206 162.8462219  11.5161076  82.8993073 160.8304596  11.8028679
  82.9563065 160.1477203  10.6681452  83.4421692 160.5589142   9.7956495
  82.4787521 158.8336639  10.8753395  82.4492416 158.1439209  10.1381283
  81.9571228 158.6599884  12.1481915  81.3971558 157.6329193  12.8620291
  81.2307816 156.6555634  12.4336576  81.1002655 157.8012238  14.2272816
  80.8453445 156.9723663  14.8710184  81.3100586 159.0765381  14.8321419
  81.0584717 159.2927399  15.8599348  81.9097366 160.0718231  14.0752678
  82.1770477 160.9817963  14.5918798  82.2712402 159.9070892  12.7590647
  84.9555969 164.2335052  11.6830225  84.2044525 165.1262054  11.3023462
  86.0598373 164.4910278  12.4463472  86.6170883 163.6676788  12.6242447
  86.6731491 165.8023376  13.0188646  86.1412277 166.6567841  12.6004524
  86.2907486 165.8420715  14.5338192  86.8369751 165.0498962  15.0458708
  86.5981598 166.7963867  14.9614515  84.8394547 165.6826019  14.7840328
  84.0096512 166.7723389  14.4604235  84.3635254 167.7253265  14.0957375
  82.6335297 166.6919556  14.6987219  81.9942398 167.4999542  14.3749208
  82.0970230 165.5816803  15.3484917  81.0315552 165.5607300  15.5238361
  82.8927002 164.4907990  15.6549358  82.4754486 163.5895844  16.0793476
  84.2479630 164.5809479  15.4062319  84.8443909 163.7376709  15.7217512
  88.1673355 165.9235077  12.6255960  89.0574341 165.3729248  13.2764797
  88.5419617 166.5753326  11.4445124  87.6460800 166.9579620  10.4239550
  87.2943344 167.9801025  10.5639734  86.8010330 166.3234253  10.1568089
  88.4955292 167.0307465   9.1049423  88.1187515 167.7478027   8.3755789
  88.4551315 166.0348511   8.6637239  89.8592148 167.4472198   9.7092333
  90.0663452 168.5063477   9.8623390  90.6360016 167.1529388   9.0034657
  89.9293442 166.7118683  11.0330067  90.2713470 165.6957245  10.8365583
  90.8431778 167.3285370  12.0285196  90.6166611 168.4205170  12.5409203
  91.9368210 166.6894073  12.3599949  91.9580383 165.7040710  12.1391792
  92.9129486 167.0887756  13.3302889  93.8880997 166.6713409  13.0794277
  93.0359192 168.1648102  13.4533052  92.6097641 166.5787048  14.7473459
  93.3185196 166.9826660  15.6709003  91.6361771 165.6932373  14.9631195
  90.9667282 165.5538788  14.2197943  91.3772049 164.9012299  16.1148891
  92.0981064 165.2003326  16.8757668  90.0032578 165.4358826  16.6071854
  89.3290176 165.3259430  15.7578230  89.5621948 164.8134766  17.3857536
  90.0114899 166.8494110  17.1218777  90.4646835 167.0418243  18.4352360
  90.5292664 166.1551208  19.0484028  90.5577011 168.3051605  18.9350853
  90.8105240 168.4215240  19.9786110  90.2675934 169.4024811  18.1434803
  90.5129700 170.6646423  18.5375443  90.6759186 170.6507416  19.4835110
  89.7330475 169.2413177  16.8119278  89.4049835 170.1794128  16.3891258
  89.6406555 167.9349365  16.2893772  89.2945938 167.7963257  15.2757578
  91.4850616 163.4336853  15.8786411  90.8533554 162.9595184  14.9304256
  92.1144562 162.6746826  16.8268204  92.6027069 163.1689758  17.5598812
  92.1919022 161.2475433  16.9713936  92.0868301 160.8581390  15.9587612
  93.5034714 160.8183594  17.5200062  93.5282593 161.3071747  18.4939461
  93.4831543 159.7364807  17.6512165  94.3155594 161.1869659  16.8933105
  91.0618896 160.7848511  17.8736839  90.9116821 161.3359375  18.9396954
  90.1842804 159.8635406  17.3612156  90.3257523 159.4307251  16.4596901
  89.2264023 159.2005005  18.1812744  88.8154831 159.9853516  18.8163090
  88.1525345 158.6194611  17.2444267  87.3590469 158.1256561  17.8053589
  87.6728897 159.5006561  16.8183403  88.6035385 157.7788391  16.1120758
  88.7759247 158.1804504  14.8368731  88.4675751 159.1655121  14.5191193
  89.2779846 157.1898041  14.0445824  89.3297653 157.1979828  13.0359430
  89.6111526 156.0621033  14.8355417  90.1108170 154.8129578  14.5260601
  90.4740295 154.5224457  13.5513382  90.1659393 153.8476410  15.5594921
  90.5362625 152.8919525  15.2189779  89.7208481 154.1471863  16.8657188
  89.7934875 153.4656067  17.7003288  89.2545242 155.4350891  17.1593933
  89.0379257 155.7200623  18.1783504  89.1849136 156.4077911  16.1386032
  89.8722229 158.1349030  19.1093769  90.8871231 157.5162506  18.8472385
  89.1619415 157.7763062  20.1852818  88.5476761 158.5058441  20.5177803
  89.4887009 156.5621338  21.0107288  89.8731003 155.7708435  20.3671551
  90.6178284 156.8032074  22.0348701  91.5140228 156.9369812  21.4290333
  90.4307785 158.0151672  22.9118328  89.6564560 157.8583679  23.6627960
  91.3448029 158.1643066  23.4866447  90.1784439 158.9029236  22.3319168
  90.7357941 155.7496338  22.9038372  91.1598129 155.0717621  22.3725185
  88.1567764 156.0499420  21.6228600  87.3567963 156.7685547  22.1986713
  87.8726959 154.6893921  21.4102669  88.6266632 154.1186371  21.0555000
  86.5450439 154.1226654  21.7568436  85.8085022 154.5951996  21.1069870
  86.5153961 152.6059113  21.6314373  87.3777008 152.1063690  22.0730228
  85.2845917 151.9667969  22.2977524  84.3922501 152.4250793  21.8713799
  85.1857910 150.8884583  22.1731358  85.2761307 152.1974487  23.3630352
  86.5592346 152.2295990  20.1128101  85.8850403 152.7849579  19.4607868
  87.5395660 152.5208893  19.7357006  86.3433228 150.7419891  19.6884155
  85.2951736 150.5726776  19.9350281  86.4984283 150.6350098  18.6148224
  87.0819778 150.1402130  20.2179165  86.2279816 154.4546356  23.2474709
  86.9651413 154.1278229  24.1980457  85.0425949 154.9761353  23.4535446
  84.4976959 155.2063446  22.6348915  84.3400421 155.2213440  24.7783241
  85.0634232 155.0465851  25.5747471  83.9664307 156.6772766  24.8853455
  83.3062515 156.9402924  24.0588589  83.5207825 156.9457397  25.8431683
  84.7897797 157.3746033  24.7306614  83.1742325 154.2390442  25.0483055
  82.2630234 153.9642029  24.2348919  83.0859451 153.8097839  26.3070660
  83.7448654 154.2075348  26.9610596  81.9544067 153.0264740  26.8475075
  81.1314087 153.2319641  26.1630001  82.4336700 151.5153046  26.8159885
  83.3926086 151.4941254  27.3337650  81.8063965 150.9072571  27.4678249
  82.6827240 150.8739624  25.4056625  81.6810303 150.7053680  25.0103397
  83.1902084 151.5945587  24.7643414  83.5927658 149.6184845  25.5431423
  84.7760696 149.6211700  25.2821884  83.0511322 148.5351715  26.0212994
  83.6724091 147.7874603  26.2952328  82.0714111 148.4332886  26.2446346
  81.5761795 153.4718933  28.2160969  82.3993301 154.0474548  28.9305897
  80.3527908 153.1274872  28.6595325  79.7709579 152.6350708  27.9968967
  79.7895050 153.4267731  30.0166531  79.7633209 154.5009308  30.1999645
  78.3679733 152.8469543  30.0778103  77.7031174 153.3269043  29.3596745
  78.3613586 151.7872162  29.8228951  77.6095123 153.0480652  31.7366467
  76.3557053 152.6930542  31.4419460  80.7316513 152.8681183  31.1334610
  81.3497543 151.8337555  30.8756371  80.7675400 153.3419342  32.3739777
  80.4192276 154.2897034  32.3962288  81.6279297 152.8491821  33.4846191
  82.5259781 152.4362183  33.0252075  82.0079193 154.0949097  34.2838211
  82.4898911 154.8700562  33.6880341  81.0896988 154.5631866  34.6383629
  82.8838577 153.6759186  35.4028320  82.4013824 152.9419098  36.0482407
  83.7211990 153.1103058  34.9941139  83.4018936 154.9483948  36.0341263
  82.6164017 155.6175690  36.3852844  83.9089508 154.5991211  36.9335709
  84.3608322 155.6510925  35.2401466  84.9088821 155.1237640  34.5755692
  84.8277359 156.9039459  35.4438324  84.4262543 157.6833801  36.4299316
  83.6683426 157.4040070  37.0362434  84.7887115 158.6259003  36.4499664
  85.8172836 157.3879852  34.7363014  86.2093735 156.7464447  34.0619087
  86.3536530 158.2261658  34.9091225  81.0275116 151.6700592  34.2027054
  81.6573792 150.6655731  34.5593834  79.6798172 151.7979431  34.3535042
  79.2692566 152.6504364  34.0002441  78.8571854 150.8721619  35.1720314
  79.4937210 150.5812988  36.0076904  77.7028732 151.6098328  35.9103508
  77.0758362 152.1406555  35.1940041  76.8058701 150.6165009  36.6848717
  77.4413376 150.0422821  37.3590736  76.0448151 151.1639862  37.2409019
  76.2651138 149.8994446  36.0671959  78.2311554 152.7917480  36.8743629
  78.5500946 153.6728668  36.3175735  77.3128662 153.1038818  37.3717728
  79.3315964 152.4354248  37.8050270  80.2845993 152.2761841  37.3005219
  79.3960266 153.2842560  38.4857826  79.0772247 151.5910187  38.4456406
  78.5630417 149.5415192  34.4440422  78.5066223 148.5023956  35.0881157
  78.3547211 149.5521240  33.1306190  78.3631973 150.4351654  32.6404266
  77.9828262 148.4009247  32.3609200  77.9882278 147.5252380  33.0099564
  76.5270081 148.5528259  31.8508511  76.0805283 147.6003876  31.5651817
  75.9366302 148.9311676  32.6853561  76.3748016 149.7173920  30.5590973
  75.1812592 150.2003784  30.9155807  78.9076462 148.0303802  31.2176189
  78.7406769 146.9395905  30.6474056  79.7992859 148.9023895  30.6917648
  79.9833984 149.7483978  31.2118340  80.5182495 148.5684204  29.4695339
  81.4591217 149.1145172  29.4014053  80.6718903 147.4893341  29.4771442
  79.8430557 148.7777100  28.1232834  80.4310455 148.4710083  27.0865135
  78.6074371 149.2600708  28.0692463  78.1473389 149.5380859  28.9242973
  77.9451447 149.5305176  26.7250633  78.0078812 148.6155853  26.1359367
  76.5107803 149.9139099  27.0221424  76.0886307 149.0695190  27.5670280
  76.4994965 150.8518829  27.5772820  75.8086166 150.1557007  25.7203789
  75.8592987 149.3459167  24.8341942  75.1858826 151.3443756  25.5653458
  75.0345993 151.7075043  24.6351032  75.2143860 152.0284119  26.3078976
  78.7294388 150.6042480  25.9452934  79.3547592 151.5292053  26.4701328
  78.7908401 150.4786377  24.6373291  78.3457794 149.6644745  24.2383995
  79.3292999 151.4847260  23.6963959  80.3294754 151.7674866  24.0247059
  79.4400711 150.9502716  22.2300224  79.9260178 149.9750824  22.2607994
  78.4488297 150.7985992  21.8027744  80.1231842 151.9717560  21.3703995
  79.4417801 152.8340912  20.4998188  80.3691330 153.5742340  19.9360523
  80.1154022 154.3090973  19.1863804  81.6194611 153.2503815  20.3119087
  82.4529037 153.6829987  19.9399834  81.4763260 152.2091370  21.1832180
  82.3363266 151.7818298  21.6774006  78.4959030 152.8203278  23.7522869
  77.2811432 152.8079834  23.6163769  79.1834106 153.9603882  23.9685917
  80.1828842 153.8870697  24.0942020  78.7189178 155.3473663  24.0931740
  77.6521912 155.3185272  23.8709793  79.0837250 155.8494873  25.5032940
  80.1654053 155.8777466  25.6347141  78.7566910 156.8681335  25.7118797
  78.5585556 155.0772705  26.7184124  78.9818115 154.0742340  26.7719078
  78.8024445 155.6866302  27.5886478  76.7091446 154.9078369  26.6771755
  76.0516281 156.6038971  26.6288567  76.2474747 157.0599518  25.6584110
  74.9930038 156.4778595  26.8558578  76.5971451 157.2136078  27.3491116
  79.3078690 156.3283081  23.0540352  79.0300369 157.4997864  23.0841274
  80.2183533 155.8450928  22.1663837  80.3379288 154.8421936  22.1695099
  80.8930664 156.6587830  21.2275391  80.5901337 156.3205872  20.2366028
  80.6037216 157.7096252  21.2171478  82.3906403 156.7200012  21.2948666
  83.0472412 155.6912994  21.4614353  82.9878387 157.9324646  21.1108704
  82.3064346 158.6697845  21.0006790  84.4585342 158.1860046  21.1344585
  85.0349808 157.3820648  21.5921574  84.9616699 158.2246094  19.6765690
  84.6444702 159.1114960  19.1280041  86.0492096 158.2691956  19.7346992
  84.4546661 157.0984344  18.8422661  85.1366043 155.9117737  18.5756035
  86.1701813 155.7306213  18.8311443  84.3298416 154.9833221  18.0120220
  84.6774139 154.0928650  17.6858253  83.0631256 155.5061493  17.7999249
  81.8708801 154.9460144  17.3320827  81.8254471 153.9105377  17.0285435
  80.7154007 155.8243713  17.1698265  79.7876434 155.4036102  16.8111820
  80.7722549 157.1535034  17.5477085  79.8242950 157.6676178  17.4888668
  81.9659424 157.6986694  18.0896683  82.0072861 158.7295990  18.4088478
  83.1671448 156.8897247  18.1715183  84.7706299 159.4330750  21.9452019
  84.0921326 160.4220581  21.7369499  85.8696747 159.3334656  22.7309513
  86.3616333 158.4900208  22.9891567  86.6407471 160.4668579  23.1602249
  86.0377197 161.3237457  23.4605923  87.5724716 160.1461792  24.3401432
  86.9965591 159.6696320  25.1334438  88.3539276 159.4623413  24.0087948
  88.2341309 161.3525543  24.9480572  88.7152100 161.9803619  24.1980457
  87.4639664 161.9647827  25.4172363  89.3240051 161.0596771  26.0755157
  89.0386581 160.2030182  26.6861038  90.2511368 160.9132080  25.5213699
  89.4541779 162.3124695  27.0200672  89.8506775 163.1322784  26.4210606
  88.4591904 162.6041107  27.3563156  90.4244232 162.2036133  28.1467056
  91.2862396 161.7366180  27.9031734  90.8170776 163.0769043  28.4680634
  90.0218964 161.6202240  28.8662472  87.4246597 160.8926392  21.8762932
  87.8781967 160.0308075  21.1356716  87.6115799 162.2006836  21.6907825
  87.0376740 162.8874512  22.1588345  88.5470352 162.8360748  20.7900257
  89.0929947 162.0358887  20.2902699  87.7348938 163.7584229  19.8779278
  87.2414703 164.4777832  20.5314827  88.3675232 164.3340149  19.2022285
  86.8501129 162.9323730  19.0043812  87.3464737 162.5860748  17.7171307
  88.3417130 162.8482971  17.3898144  86.5166092 161.9605865  16.7808056
  86.9229965 161.8296051  15.7887840  85.1969147 161.6071472  17.0975246
  84.5618362 161.0978546  16.3878098  84.7011871 161.9704285  18.3861427
  83.6828995 161.7748260  18.6881847  85.5167389 162.5886383  19.3410454
  85.0875702 162.8313599  20.3019333  89.7228241 163.5392303  21.5249062
  89.5474091 164.0677032  22.6286621  90.9429703 163.5084839  20.9626293
  91.0759888 163.0218048  20.0876751  92.1859665 164.1735840  21.4326553
  91.8405685 164.9996033  22.0543365  93.1183243 163.2769928  22.2712669
  94.0625076 163.7789764  22.4825439  92.4641495 162.8947296  23.5884666
  91.5697403 162.2966156  23.4141426  93.1554260 162.3268585  24.2111607
  92.1862793 163.8440704  24.0463581  93.4270706 162.0369110  21.5290337
  94.0804062 162.2233582  20.8508072  92.8775787 164.7131805  20.1686573
  92.9421234 164.0710602  19.1251526  93.3987274 165.8912964  20.2889023
  93.3996277 166.3931885  21.1653709  94.0302734 166.5724792  19.1983509
  93.3441238 166.5787964  18.3514347  94.1652679 168.0679474  19.5263805
  95.0427933 168.2182465  20.1552391  94.2736893 168.5813751  18.5710049
  93.2104721 168.4662323  19.8696575  95.3548279 165.8891449  18.8288612
  96.1119003 165.4243164  19.7116642  95.7365036 165.8256836  17.5365696
  95.0139160 166.1167145  16.8937111  97.1284561 165.5438385  17.0646172
  97.5242157 164.7782593  17.7319832  97.1742096 164.8751678  15.7017536
  98.1347427 164.3924408  15.5216322  96.1562042 163.6999664  15.5792818
  95.1636429 164.0468750  15.2919016  96.5024719 163.0435638  14.7809591
  96.1938477 163.2262878  16.5602531  96.8435211 165.8304596  14.7339687
  97.2965927 165.6473541  13.9076519  98.0870132 166.7361450  17.0965252
  99.2767639 166.5572815  17.3757210  97.5949402 167.9923248  16.9569054
  96.5915222 168.0874176  16.8920345  98.3496170 169.2568054  16.8496265
  99.4067154 169.0024872  16.7723846  97.8957214 169.8600769  15.5041676
  96.8179932 169.7496338  15.3841238  98.1532211 170.9166718  15.5778189
  98.7758331 169.4112396  14.3231573  99.8301315 169.5446472  14.5655785
  98.6544952 168.3721619  14.0170727  98.4329910 170.2886963  13.1024113
  98.3342056 171.3063354  13.4802322  99.2312775 170.0941162  12.3861876
  97.0894852 169.7879028  12.4905672  97.0566635 168.6984100  12.4954557
  96.2471695 170.1209412  13.0969334  96.8747711 170.2048950  11.0760527
  97.4864349 169.8032074  10.3799067  95.9694443 169.8826599  10.7651558
  96.8780212 171.2132263  11.0180235  98.2563248 170.0763855  18.1254025
  97.1310883 170.2460175  18.6871109  99.3843613 170.6055603  18.5836735
 100.1641846 170.3773499  17.9837589  99.6252594 171.2294922  19.8760567
  99.3345566 170.4451294  20.5748959 101.0926819 171.3779602  20.1541882
 101.2726593 171.6537323  21.1932545 101.6261139 170.4765625  19.8524570
 101.7497101 172.5742340  19.4068909 101.6209183 172.4784698  18.3287716
 101.4135742 173.5330658  19.8015366 103.2309265 172.5562744  19.6854076
 103.4121780 172.6138611  20.7586899 103.7113876 171.6376953  19.3485756
 103.9929504 173.7358856  19.0659485 103.4204178 174.6568909  19.1757889
 104.9218216 173.8869171  19.6159325 104.2994003 173.5138245  17.6305237
 103.4542389 173.1166382  17.2457371 104.6082535 174.2436218  17.0043488
 104.9860992 172.7848206  17.4997253  98.8980255 172.5298615  20.1640987
  98.9519653 172.8989868  21.3403530  98.3175278 173.1651001  19.1609478
  98.4016724 172.7275848  18.2545223  97.7901459 174.5520630  19.2334499
  97.9426193 174.9328766  20.2433147  98.6288986 175.4521637  18.2622433
  98.1728439 176.4336700  18.1327496  99.5713120 175.6996765  18.7508068
  98.9148254 174.9574738  16.8219280  98.3848572 173.8651733  16.4819813
  99.5198441 175.7288208  16.0197754  96.3449326 174.7053833  18.9007339
  95.7059097 175.7609558  19.0449448  95.7210999 173.6342010  18.4082069
  96.2568665 172.8234100  18.1330891  94.2679596 173.5592957  18.1864948
  94.0159302 174.4121552  17.5562363  93.7920685 172.2244720  17.5170727
  94.0235367 171.4009094  18.1925449  92.7386703 172.2556763  17.2387180
  94.5451202 172.0686798  16.2151852  94.5869904 172.9513245  15.5770025
  95.5362549 171.8361511  16.6046638  93.9424057 170.6672668  15.1668348
  92.3014984 171.1939240  14.4991407  92.3502960 172.1608276  13.9983377
  91.9388962 170.5120544  13.7299290  91.6641083 171.2025146  15.3833132
  93.5200272 173.7192688  19.4988956  94.0117188 173.0647736  20.4303188
  92.3797073 174.3613129  19.5961475  92.0276413 174.9134064  18.8271599
  91.5815964 174.4904175  20.8381481  92.0660400 173.9190216  21.6299267
  91.6134644 176.0194855  21.2409935  92.6266632 176.2040710  21.5980129
  91.4603424 176.5599670  20.3068943  90.6117859 176.4085388  22.2166443
  91.0548248 176.8586121  22.9396610  90.1300964 174.0281830  20.5447960
  89.5518036 174.4887695  19.5538673  89.4669800 173.2070312  21.4105568
  88.0738983 172.8088379  21.2592506  87.8786469 172.4021759  20.2669792
  87.5068512 173.6635284  21.6281338  87.8286057 171.6925354  22.2981415
  88.1064377 170.7068787  21.9247913  86.8027573 171.7031250  22.6664257
  88.8070755 172.1090546  23.4052372  89.0974579 171.3205109  24.0994816
  88.2986908 172.9227295  23.9225273  90.0386276 172.6322937  22.6290760
  90.5243454 173.4455414  23.1683388  90.9896622 171.4487457  22.4373474
  90.9074554 170.8612213  21.3712845  91.7987366 171.1033478  23.4402637
  91.7141266 171.6717224  24.2708588  92.7946320 169.9188080  23.3680210
  93.3445969 170.1198120  22.4486504  93.7719727 169.9786835  24.6293259
  94.2179108 170.9657288  24.5069485  93.1164474 169.9556732  25.4998798
  94.8355713 168.9466705  24.6973553  95.3301315 169.0569305  25.6624184
  94.4247360 167.9374084  24.6707592  95.9181824 169.0482483  23.6256218
  95.8118668 169.6960144  22.5893936  97.0603409 168.3836060  23.8633556
  97.7947464 168.4668579  23.1750107  97.1469879 167.7597809  24.6529331
  92.1058121 168.5609436  23.3015041  92.6992493 167.5581665  22.9143696
  90.8712463 168.4902344  23.8403358  90.3758698 169.3503113  24.0273933
  90.0712814 167.2999115  24.2552013  90.2842789 166.4725037  23.5783558
  90.4602432 166.9377289  25.7046871  89.7834702 166.1465302  26.0273075
  91.5144806 166.6652527  25.6552753  90.3498688 168.0508118  26.7532482
  90.8184586 168.9769897  26.4205093  89.2894974 168.2966614  26.8104515
  90.6849976 167.5609589  28.1923561  90.2790451 168.2499390  28.9330292
  90.3113251 166.5475922  28.3392773  92.1728668 167.5238800  28.4144344
  92.5692368 166.8596802  27.6464272  92.6185760 168.5136719  28.3156242
  92.5414505 166.8109589  29.7078781  92.1953354 165.8667603  29.8017082
  93.5404129 166.9019318  29.8257694  92.2144699 167.3902588  30.4678707
  88.5847549 167.5872650  24.1625786  88.0619659 168.6659851  24.5279579
  87.8595200 166.5429535  23.7555370  88.3432312 165.7055206  23.4643040
  86.3930664 166.4770660  23.8365459  86.0572739 166.8289337  24.8120136
  85.7064819 167.4464722  22.8160553  84.6670151 167.6246490  23.0914764
  86.2141418 168.4035797  22.9357967  85.7391891 167.0886230  21.3713112
  86.8252563 167.5883942  20.5975761  87.5109634 168.3363190  20.9674740
  86.9686966 167.2533875  19.2749329  87.7308197 167.6258087  18.6064377
  86.0305252 166.3812408  18.6887360  86.2672501 166.0492554  17.6886616
  84.8644867 166.0467072  19.3845348  84.0745544 165.4817810  18.9120255
  84.7237778 166.4295959  20.7064571  83.8130569 166.1703949  21.2258816
  85.8500519 165.0830688  23.7569828  86.6003342 164.1500854  23.5154858
  84.5709915 164.9001465  23.8458385  84.0904846 165.7467346  24.1150875
  83.8845215 163.6586304  23.6504173  84.5913010 162.9685669  23.1895790
  83.4167862 163.0122375  24.9673290  82.4951096 163.4838867  25.3081589
  83.1341400 161.9743805  24.7910805  84.3660965 163.0189667  26.0961742
  84.7404480 164.1248474  26.8018913  84.3072739 165.0961761  26.6140556
  85.6530304 163.8259430  27.7496166  86.1222153 164.4538269  28.3865986
  85.8066330 162.4263000  27.8260117  86.5586319 161.6141663  28.6772003
  87.1078186 162.1194916  29.4578724  86.5748749 160.1725769  28.4515476
  87.0846024 159.5091858  29.1345539  85.8716660 159.6871338  27.3369484
  85.8352661 158.6448669  27.0563431  85.1652298 160.5606384  26.4777985
  84.6352692 160.1114502  25.6508904  85.1039429 161.9516602  26.7045727
  82.7435226 163.8217163  22.6395741  82.0051041 164.8162231  22.7191277
  82.7038727 162.9351044  21.6833630  83.3151093 162.1313629  21.7051525
  81.5890579 162.7942657  20.6747513  80.9480515 163.6588287  20.8471985
  81.8848495 162.7760468  19.6258068  80.7539139 161.5492249  20.9777298
  81.0965042 160.4326019  20.6929951  79.6536636 161.7498322  21.7069321
  79.3732376 162.7166748  21.7885475  78.8213577 160.7678833  22.3496456
  79.3523636 159.8306885  22.5163364  78.3794098 161.3123322  23.7044106
  77.7254257 162.1763000  23.5863018  77.8022690 160.5863037  24.2770252
  79.4742050 161.7827301  24.6652718  80.1104736 162.5362091  24.2010288
  78.8628159 162.3810730  25.9434643  78.3064651 161.6190796  26.4893227
  79.6682053 162.7020111  26.6040993  78.1875763 163.1849670  25.6503696
  80.3784103 160.6255341  25.1602421  80.8349915 160.1459808  24.2944031
  81.1632690 161.0273285  25.8010731  79.7449112 159.9584961  25.7449169
  77.4806137 160.3975830  21.6269321  76.9117432 161.3961029  21.2242584
  77.0842285 159.1472626  21.3638401  77.5823212 158.4041595  21.8326778
  75.9838409 158.7858429  20.5044289  76.0401001 159.3768768  19.5903111
  76.0641479 157.2768250  20.0568790  75.0993195 157.0971375  19.5826263
  77.0972977 157.0195770  19.0532436  78.0892639 157.4063873  19.2866478
  77.1483612 155.9707184  18.7610283  76.8262558 157.5837250  18.1608467
  76.3060760 156.4529877  21.1983681  75.6349258 155.7665863  21.1951790
  74.7048569 159.0182953  21.2324715  74.4684525 158.6325989  22.3608437
  73.8516998 159.8350983  20.5637112  74.1420059 160.0709229  19.6255169
  72.6123428 160.3999786  21.0826340  72.8398895 160.6006775  22.1295547
  72.3003693 161.7517700  20.3360996  71.6669617 162.3746796  20.9676743
  73.2637863 162.2432709  20.2006397  71.6092606 161.5709839  18.9904060
  72.2283859 162.1081238  18.2718868  71.5363770 160.5186157  18.7160034
  70.1537094 162.1143494  18.9714108  69.9779739 163.0820465  19.4412861
  69.8371887 162.4343719  17.9786777  69.1628723 161.1794281  19.4456120
  69.0560760 161.1770172  20.4499454  68.5116730 160.1938629  18.7921410
  68.7117004 159.8827515  17.5697517  69.3651352 160.4126434  17.0108795
  68.0753555 159.1967163  17.1895809  67.5948257 159.5009308  19.4983788
  67.2462082 159.7945862  20.3996754  66.9527054 158.8995972  19.0022221
  71.4327621 159.3830719  21.1234550  70.4789352 159.4554596  21.8313065
  71.6550293 158.2495575  20.3736210  72.4537277 158.2915649  19.7568378
  70.9387894 156.9544373  20.4226379  69.8539963 157.0574036  20.3957882
  71.3527679 156.0929413  19.2422295  70.9148254 155.0949707  19.2230263
  70.9668732 156.6125946  18.3652153  72.7558975 155.9356079  19.3355160
  73.1431503 155.4035339  18.6365585  71.1629868 156.1984253  21.7714882
  70.2388916 155.7310638  22.3426800  72.4105225 156.2288361  22.3390675
  73.0945663 156.6874542  21.7543812  72.7551498 155.6146851  23.6732311
  72.0729141 154.7919769  23.8872795  74.1961975 155.0391998  23.5761909
  74.8723831 155.8831177  23.4395294  74.5070343 154.6073608  24.5275059
  74.3178558 154.3502502  22.7403336  72.5276489 156.5807648  24.9066772
  72.4636078 156.0776672  26.0032310  72.3213196 157.8277893  24.7225761
  72.5252914 158.2413025  23.8239632  71.9479980 158.7345276  25.8386383
  72.5308762 158.4230804  26.7054462  72.4394226 160.2432251  25.5188084
  71.9144974 160.5090332  24.6012592  72.1115646 160.8563843  26.3582363
  73.9918671 160.4064178  25.3999805  74.3991547 159.6568298  24.7215023
  74.2749405 161.8356628  24.8622894  73.8017426 162.5205841  25.5658970
  75.3572540 161.9615326  24.8914890  73.8406448 161.9589386  23.8701744
  74.6294098 160.2655487  26.7385502  74.5599518 159.2670746  27.1701908
  75.6819458 160.5160675  26.6062717  74.1727448 160.9690094  27.4347515
  70.4440231 158.7527771  26.2335148  69.5966339 158.6130219  25.4054928
  70.2245331 159.0110626  27.5411129  71.0137558 158.9479065  28.1682053
  68.8708038 159.2331390  28.1824360  68.1551895 159.3213196  27.3649845
  68.4493256 157.9627533  28.9151249  68.5017548 157.1074982  28.2414188
  69.1763611 157.8457184  29.7187672  67.0537186 157.9344940  29.5177593
  67.0220871 158.8500824  30.1083603  65.9231491 157.8759003  28.4906521
  65.9768143 156.9846039  27.8654919  64.8878403 157.9595184  28.8211517
  66.1391830 158.6481476  27.7523727  66.7742615 156.8150024  30.4638748
  67.3794556 156.8811951  31.3680115  65.7300797 156.8918610  30.7669716
  66.8595047 155.8244324  30.0170784  68.8491440 160.4761658  29.1145287
  69.6437759 160.5360870  30.0959797  67.8569565 161.4088287  29.0481567
  67.0792770 161.7169800  27.8886395  66.0894318 161.2828522  28.0294838
  67.5084991 161.2248688  27.0158825  67.0450211 163.2458649  27.7427177
  66.0659180 163.4777679  27.3235683  67.8506470 163.6498260  27.1296177
  67.1602173 163.8163910  29.1201591  66.1569901 164.1758423  29.3491421
  67.8695984 164.6388397  29.2122040  67.6887970 162.6229858  29.9411488
  68.6488266 162.9562836  30.3353024  66.8337097 162.2881470  31.1584358
  65.8971329 163.0004120  31.4409752  67.2080154 161.2882843  31.9815044
  68.0917816 160.8345032  31.7994347  66.5289993 160.9224701  33.2561340
  65.4573059 160.8136139  33.0896149  67.0348053 159.5438232  33.8419380
  66.9893265 158.8170319  33.0308952  68.0975266 159.7089233  34.0193329
  66.2124634 159.2292175  35.1351357  66.3524780 160.0442047  35.8452644
  65.1510620 159.2502899  34.8879852  66.5995636 158.0020905  35.8507004
  67.6823349 157.8767548  35.8499451  66.2085419 158.0493317  36.8670578
  65.9297867 156.8101807  35.2493896  65.6425858 156.8015747  34.2811241
  65.6435165 155.7573090  35.9718399  65.8729172 155.7037811  37.2217789
  66.1619415 156.4998016  37.7721558  65.7260513 154.8614655  37.7594070
  65.1425476 154.6861115  35.4118500  64.8213196 154.7363892  34.4556122
  64.6543503 154.0306244  36.0052376  66.7730103 162.0205841  34.3109436
  65.7761841 162.5470276  34.8178368  67.9568253 162.3581390  34.6229897
