Cpptraj Generated Restart                                                       
   72
  28.0980000   4.8900000 -24.1310000  29.0440000   4.6970000 -22.7130000
  27.1400000   3.5360000 -23.7510000  30.1310000   5.5880000 -22.3340000
  28.6320000   3.5950000 -21.9870000  27.5380000   2.9120000 -22.5870000
  25.9520000   3.1140000 -24.5540000  31.1180000   5.1820000 -21.7220000
  30.0030000   6.9060000 -22.7020000  26.8550000   1.7160000 -22.0140000
  25.4660000   1.7350000 -24.0790000  31.0250000   7.8870000 -22.4200000
  25.5520000   1.5470000 -22.6170000  32.0350000   7.9690000 -23.5320000
  24.4840000   0.9290000 -21.9820000  33.3690000   8.2720000 -23.2480000
  31.6820000   7.6920000 -24.8580000  23.3850000   0.9350000 -22.5500000
  24.6180000   0.2580000 -20.6630000  34.3100000   8.3300000 -24.2760000
  32.6390000   7.7420000 -25.8840000  24.3540000  -1.1060000 -20.8100000
  24.0860000   0.5560000 -19.3970000  33.9670000   8.0840000 -25.6150000
  23.1010000  -1.2460000 -20.2900000  22.8790000  -0.2110000 -19.3910000
  24.4970000   1.4920000 -18.3190000  34.9630000   8.1620000 -26.5790000
  22.1550000  -2.2030000 -20.6300000  21.6440000  -0.1440000 -18.7310000
  34.6860000   8.6370000 -27.9430000  36.2860000   8.6040000 -26.0900000
  22.4730000  -3.2220000 -21.5720000  20.8860000  -2.0400000 -20.0740000
  20.6330000  -1.0280000 -19.1390000  35.8110000   8.1280000 -28.8870000
  37.3780000   8.0820000 -27.0460000  22.7060000  -4.0610000 -22.3370000
  37.1670000   8.5330000 -28.4410000  38.1920000   7.9680000 -29.3150000
  28.6060000   4.6240000 -21.9210000  26.1830000   2.3200000 -23.8740000
  25.9790000   2.7470000 -25.5580000  29.8060000   5.9420000 -22.7400000
  26.7810000   2.5760000 -22.6470000  26.5950000   1.9760000 -21.0100000
  25.3240000   1.7270000 -23.0190000  24.7690000   1.1020000 -24.5880000
  31.5050000   7.4590000 -21.5650000  31.0410000   8.9560000 -22.3720000
  32.5360000   8.8760000 -23.3280000  32.0210000   7.3750000 -23.9370000
  33.9750000   8.6590000 -25.1950000  33.4930000   7.1690000 -25.8010000
  24.9520000   1.3780000 -17.3570000  24.0470000   2.4600000 -18.3900000
  25.2420000   1.3890000 -19.0800000  22.3770000   0.5100000 -19.0460000
  34.7920000   7.6110000 -27.6590000  35.2450000   9.2460000 -27.2630000
  35.2690000   8.9340000 -26.0450000  36.3310000   7.5640000 -25.8440000
  20.2020000  -2.3990000 -20.7580000  20.7280000  -0.8250000 -20.1460000
  36.8260000   7.7920000 -28.9270000  35.7250000   9.1690000 -29.1190000
  37.2730000   9.1170000 -27.2990000  36.8200000   7.4590000 -27.7130000
  37.2730000   7.5330000 -28.2700000  38.0920000   9.0140000 -29.5200000
  37.6190000   7.4090000 -30.0250000  39.2220000   7.6880000 -29.3870000
