%VERSION  VERSION_STAMP = V0001.000  DATE = 09/01/26  08:21:16                  
%FLAG TITLE                                                                     
%FORMAT(20a4)                                                                   
MOL                                                                             
%FLAG POINTERS                                                                  
%FORMAT(10I8)                                                                   
      72      16      33      44      74      64     128     110       0       0
     409       1      44      64     110      34      65      31      20       0
       0       0       0       0       0       0       0       0      72       0
       0
%FLAG ATOM_NAME                                                                 
%FORMAT(20a4)                                                                   
S1  C1  C2  C3  C4  C5  C6  O1  N1  C7  C8  C9  N2  C10 C11 C12 C13 O2  C14 C15 
C16 O3  C17 C18 C19 C20 C21 N3  C22 C23 C24 C25 O4  C26 C27 C28 C29 N4  C30 H1  
H2  H3  H4  H5  H6  H7  H8  H9  H10 H11 H12 H13 H14 H15 H16 H17 H18 H19 H20 H21 
H22 H23 H24 H25 H26 H27 H28 H29 H30 H31 H32 H33 
%FLAG CHARGE                                                                    
%FORMAT(5E16.8)                                                                 
  1.44320616E+00 -3.91232781E+00 -1.57440672E+00  1.28594771E+01 -1.16622720E+00
 -2.88459009E+00 -6.94269630E-01 -1.09169799E+01 -1.02208881E+01  2.72058939E+00
  1.47600630E+00  2.37436569E+00 -8.01416754E+00 -2.06458659E+00  1.27064098E+01
 -1.71289620E+00 -1.71289620E+00 -1.04067555E+01 -6.76047330E-01 -2.67867810E+00
 -2.67867810E+00 -3.79388286E+00 -6.45069420E-01  1.55982888E+00 -1.43956170E-01
 -1.34480574E+00 -9.27515070E-01 -1.16622720E+01  2.29783203E+00 -1.84045230E+00
  2.92103469E+00  2.92103469E+00 -9.16763913E+00 -2.55112200E+00 -2.11378680E+00
  1.90058589E+00  1.90058589E+00 -1.24531198E+01  1.53249543E+00  3.18890250E+00
  1.26098316E+00  1.26098316E+00  5.54869035E+00  1.37942811E+00  1.37942811E+00
  1.43409501E+00  1.43409501E+00  1.41587271E+00  1.41587271E+00  2.95201260E+00
  2.95201260E+00  2.46912165E+00  2.46912165E+00  1.14860624E+00  1.14860624E+00
  1.14860624E+00  2.73334500E+00  1.46598403E+00  1.46598403E+00  1.46598403E+00
  1.46598403E+00  7.87203360E+00  2.67867810E+00  2.58756660E+00  1.99443074E+00
  1.99443074E+00  1.99443074E+00  1.99443074E+00  8.10527904E+00  1.91394284E+00
  1.91394284E+00  1.91394284E+00
%FLAG ATOMIC_NUMBER                                                             
%FORMAT(10I8)                                                                   
      16       6       6       6       6       6       6       8       7       6
       6       6       7       6       6       6       6       8       6       6
       6       8       6       6       6       6       6       7       6       6
       6       6       8       6       6       6       6       7       6       1
       1       1       1       1       1       1       1       1       1       1
       1       1       1       1       1       1       1       1       1       1
       1       1       1       1       1       1       1       1       1       1
       1       1
%FLAG MASS                                                                      
%FORMAT(5E16.8)                                                                 
  3.20600000E+01  1.20100000E+01  1.20100000E+01  1.20100000E+01  1.20100000E+01
  1.20100000E+01  1.20100000E+01  1.60000000E+01  1.40100000E+01  1.20100000E+01
  1.20100000E+01  1.20100000E+01  1.40100000E+01  1.20100000E+01  1.20100000E+01
  1.20100000E+01  1.20100000E+01  1.60000000E+01  1.20100000E+01  1.20100000E+01
  1.20100000E+01  1.60000000E+01  1.20100000E+01  1.20100000E+01  1.20100000E+01
  1.20100000E+01  1.20100000E+01  1.40100000E+01  1.20100000E+01  1.20100000E+01
  1.20100000E+01  1.20100000E+01  1.60000000E+01  1.20100000E+01  1.20100000E+01
  1.20100000E+01  1.20100000E+01  1.40100000E+01  1.20100000E+01  1.00800000E+00
  1.00800000E+00  1.00800000E+00  1.00800000E+00  1.00800000E+00  1.00800000E+00
  1.00800000E+00  1.00800000E+00  1.00800000E+00  1.00800000E+00  1.00800000E+00
  1.00800000E+00  1.00800000E+00  1.00800000E+00  1.00800000E+00  1.00800000E+00
  1.00800000E+00  1.00800000E+00  1.00800000E+00  1.00800000E+00  1.00800000E+00
  1.00800000E+00  1.00800000E+00  1.00800000E+00  1.00800000E+00  1.00800000E+00
  1.00800000E+00  1.00800000E+00  1.00800000E+00  1.00800000E+00  1.00800000E+00
  1.00800000E+00  1.00800000E+00
%FLAG ATOM_TYPE_INDEX                                                           
%FORMAT(10I8)                                                                   
       1       2       2       2       2       2       3       4       5       3
       3       3       6       2       2       2       2       4       2       2
       2       7       2       2       2       2       3       8       2       2
       3       3       9       2       2       3       3      10       3      11
      12      12      13      14      14      14      14      14      14      11
      11      11      11      12      12      12      11      14      14      14
      14      15      11      11      16      16      16      16      13      16
      16      16
%FLAG NUMBER_EXCLUDED_ATOMS                                                     
%FORMAT(10I8)                                                                   
      13      11      14      10       9      10       8       3       7      10
      10      10      11      12      11      10       9       3      10       8
       7       8      10      13      10      11       4      15       7       5
      12      11       4       5       3      13      12      13       8       1
       3       2       2       1       1       1       1       1       1       1
       1       1       1       2       1       1       1       3       2       3
       2       1       1       1       2       1       2       1       3       2
       1       1
%FLAG NONBONDED_PARM_INDEX                                                      
%FORMAT(10I8)                                                                   
       1       2       4       7      11      16      22      29      37      46
      56      67      79      92     106     121       2       3       5       8
      12      17      23      30      38      47      57      68      80      93
     107     122       4       5       6       9      13      18      24      31
      39      48      58      69      81      94     108     123       7       8
       9      10      14      19      25      32      40      49      59      70
      82      95     109     124      11      12      13      14      15      20
      26      33      41      50      60      71      83      96     110     125
      16      17      18      19      20      21      27      34      42      51
      61      72      84      97     111     126      22      23      24      25
      26      27      28      35      43      52      62      73      85      98
     112     127      29      30      31      32      33      34      35      36
      44      53      63      74      86      99     113     128      37      38
      39      40      41      42      43      44      45      54      64      75
      87     100     114     129      46      47      48      49      50      51
      52      53      54      55      65      76      88     101     115     130
      56      57      58      59      60      61      62      63      64      65
      66      77      89     102     116     131      67      68      69      70
      71      72      73      74      75      76      77      78      90     103
     117     132      79      80      81      82      83      84      85      86
      87      88      89      90      91     104     118     133      92      93
      94      95      96      97      98      99     100     101     102     103
     104     105     119     134     106     107     108     109     110     111
     112     113     114     115     116     117     118     119     120     135
     121     122     123     124     125     126     127     128     129     130
     131     132     133     134     135     136
%FLAG RESIDUE_LABEL                                                             
%FORMAT(20a4)                                                                   
MOL 
%FLAG RESIDUE_POINTER                                                           
%FORMAT(10I8)                                                                   
       1
%FLAG BOND_FORCE_CONSTANT                                                       
%FORMAT(5E16.8)                                                                 
  2.31660000E+02  2.81780000E+02  3.86240000E+02  2.53390000E+02  5.90600000E+02
  3.36070000E+02  3.21490000E+02  3.64600000E+02  2.50490000E+02  2.26810000E+02
  3.42750000E+02  2.61660000E+02  4.73590000E+02  2.52360000E+02  3.42020000E+02
  2.43910000E+02  3.44220000E+02  3.17460000E+02  3.54250000E+02  3.60690000E+02
  3.51190000E+02  3.43340000E+02  2.88790000E+02  2.53870000E+02  3.10840000E+02
  3.45250000E+02  2.52920000E+02  3.48550000E+02  5.35510000E+02  2.16590000E+02
  3.49850000E+02  2.19760000E+02  4.31010000E+02  3.52860000E+02
%FLAG BOND_EQUIL_VALUE                                                          
%FORMAT(5E16.8)                                                                 
  1.75380000E+00  1.46870000E+00  1.37300000E+00  1.50240000E+00  1.21900000E+00
  1.37980000E+00  1.42790000E+00  1.08350000E+00  1.50610000E+00  1.53840000E+00
  1.09790000E+00  1.45560000E+00  1.01320000E+00  1.46690000E+00  1.09840000E+00
  1.51470000E+00  1.09690000E+00  1.39670000E+00  1.39860000E+00  1.08600000E+00
  1.36220000E+00  1.36880000E+00  1.46100000E+00  1.50180000E+00  1.40300000E+00
  1.09620000E+00  1.46620000E+00  1.36440000E+00  9.72500000E-01  1.51560000E+00
  1.09310000E+00  1.51090000E+00  1.03380000E+00  1.09110000E+00
%FLAG ANGLE_FORCE_CONSTANT                                                      
%FORMAT(5E16.8)                                                                 
  6.28900000E+01  6.66200000E+01  6.18000000E+01  1.02140000E+02  7.83600000E+01
  6.83100000E+01  6.45700000E+01  4.52500000E+01  6.07600000E+01  6.10900000E+01
  4.39600000E+01  6.22000000E+01  7.69000000E+01  5.73700000E+01  5.99500000E+01
  6.07200000E+01  4.38000000E+01  6.65400000E+01  4.40100000E+01  6.52900000E+01
  4.32800000E+01  8.72100000E+01  6.58400000E+01  4.83900000E+01  7.69600000E+01
  7.66300000E+01  4.32300000E+01  5.46200000E+01  6.07400000E+01  4.80600000E+01
  8.66800000E+01  6.80100000E+01  4.38100000E+01  6.36700000E+01  4.49000000E+01
  7.70000000E+01  9.56300000E+01  6.16400000E+01  6.00600000E+01  6.71800000E+01
  8.26200000E+01  7.90000000E+01  6.20200000E+01  4.39500000E+01  7.72200000E+01
  7.88600000E+01  5.86200000E+01  6.55700000E+01  4.79000000E+01  6.74100000E+01
  7.75900000E+01  6.43500000E+01  4.29100000E+01  7.55500000E+01  7.50600000E+01
  5.49800000E+01  4.71000000E+01  4.68800000E+01  5.52900000E+01  3.59300000E+01
  3.57700000E+01  3.56400000E+01  3.58000000E+01  3.57700000E+01  3.56300000E+01
%FLAG ANGLE_EQUIL_VALUE                                                         
%FORMAT(5E16.8)                                                                 
  2.11568903E+00  1.94691562E+00  2.16176574E+00  1.57708019E+00  2.16525640E+00
  1.97012850E+00  2.02824799E+00  2.12406661E+00  2.15303909E+00  1.92440086E+00
  1.92771699E+00  2.11743436E+00  2.12860447E+00  2.04657396E+00  2.14169444E+00
  2.16211480E+00  2.12668460E+00  1.91218355E+00  1.91480154E+00  1.94028336E+00
  1.90555129E+00  2.14762857E+00  1.95511867E+00  1.89350852E+00  1.99089793E+00
  2.10259905E+00  1.91026369E+00  2.04936649E+00  2.10888224E+00  1.89403212E+00
  2.13925098E+00  1.96681238E+00  1.91288168E+00  2.09474507E+00  2.09230160E+00
  2.08025883E+00  1.84830447E+00  2.16927066E+00  2.21098404E+00  2.11411823E+00
  1.94656655E+00  2.07886256E+00  2.10888224E+00  1.93068405E+00  2.06350366E+00
  2.09265067E+00  2.20138473E+00  1.92474992E+00  1.90799476E+00  1.89507931E+00
  1.96052919E+00  1.93836350E+00  1.94045789E+00  1.93539644E+00  1.96663784E+00
  1.86994656E+00  1.86488511E+00  1.89350852E+00  1.86017271E+00  1.86087085E+00
  1.87622975E+00  1.89455572E+00  1.88024401E+00  1.89420665E+00  1.91619781E+00
%FLAG DIHEDRAL_FORCE_CONSTANT                                                   
%FORMAT(5E16.8)                                                                 
  2.87500000E+00  4.00000000E+00  0.00000000E+00  1.26000000E+00  0.00000000E+00
  1.10000000E+00  2.50000000E+00  1.20000000E+00  5.00000000E-01  9.20000000E-01
  1.55555556E-01  0.00000000E+00  0.00000000E+00  1.57000000E-01  1.02000000E+00
  1.70000000E-01  1.00000000E-01  2.00000000E+00  3.62500000E+00  2.64000000E+00
  1.82500000E+00  3.77000000E+00  7.53000000E-01  6.50000000E-01  3.32000000E-01
  8.55000000E-01  6.00000000E-01  1.56000000E-01  1.09000000E-01  1.05000000E+01
  1.10000000E+00
%FLAG DIHEDRAL_PERIODICITY                                                      
%FORMAT(5E16.8)                                                                 
  2.00000000E+00  2.00000000E+00  3.00000000E+00  1.00000000E+00  2.00000000E+00
  2.00000000E+00  2.00000000E+00  1.00000000E+00  2.00000000E+00  3.00000000E+00
  3.00000000E+00  2.00000000E+00  1.00000000E+00  3.00000000E+00  1.00000000E+00
  3.00000000E+00  4.00000000E+00  1.00000000E+00  2.00000000E+00  2.00000000E+00
  2.00000000E+00  2.00000000E+00  2.00000000E+00  1.00000000E+00  2.00000000E+00
  2.00000000E+00  2.00000000E+00  3.00000000E+00  3.00000000E+00  2.00000000E+00
  2.00000000E+00
%FLAG DIHEDRAL_PHASE                                                            
%FORMAT(5E16.8)                                                                 
  3.14159400E+00  3.14159400E+00  0.00000000E+00  3.14159400E+00  3.14159400E+00
  3.14159400E+00  3.14159400E+00  3.14159400E+00  3.14159400E+00  3.14159400E+00
  0.00000000E+00  0.00000000E+00  0.00000000E+00  3.14159400E+00  3.14159400E+00
  0.00000000E+00  3.14159400E+00  0.00000000E+00  3.14159400E+00  3.14159400E+00
  3.14159400E+00  3.14159400E+00  3.14159400E+00  3.14159400E+00  0.00000000E+00
  3.14159400E+00  3.14159400E+00  0.00000000E+00  0.00000000E+00  3.14159400E+00
  3.14159400E+00
%FLAG SCEE_SCALE_FACTOR                                                         
%FORMAT(5E16.8)                                                                 
  1.20000000E+00  1.20000000E+00  1.20000000E+00  1.20000000E+00  1.20000000E+00
  1.20000000E+00  1.20000000E+00  1.20000000E+00  1.20000000E+00  1.20000000E+00
  1.20000000E+00  1.20000000E+00  1.20000000E+00  1.20000000E+00  1.20000000E+00
  1.20000000E+00  1.20000000E+00  1.20000000E+00  1.20000000E+00  1.20000000E+00
  1.20000000E+00  1.20000000E+00  1.20000000E+00  1.20000000E+00  1.20000000E+00
  1.20000000E+00  1.20000000E+00  1.20000000E+00  1.20000000E+00  0.00000000E+00
  0.00000000E+00
%FLAG SCNB_SCALE_FACTOR                                                         
%FORMAT(5E16.8)                                                                 
  2.00000000E+00  2.00000000E+00  2.00000000E+00  2.00000000E+00  2.00000000E+00
  2.00000000E+00  2.00000000E+00  2.00000000E+00  2.00000000E+00  2.00000000E+00
  2.00000000E+00  2.00000000E+00  2.00000000E+00  2.00000000E+00  2.00000000E+00
  2.00000000E+00  2.00000000E+00  2.00000000E+00  2.00000000E+00  2.00000000E+00
  2.00000000E+00  2.00000000E+00  2.00000000E+00  2.00000000E+00  2.00000000E+00
  2.00000000E+00  2.00000000E+00  2.00000000E+00  2.00000000E+00  0.00000000E+00
  0.00000000E+00
%FLAG SOLTY                                                                     
%FORMAT(5E16.8)                                                                 
  0.00000000E+00  0.00000000E+00  0.00000000E+00  0.00000000E+00  0.00000000E+00
  0.00000000E+00  0.00000000E+00  0.00000000E+00  0.00000000E+00  0.00000000E+00
  0.00000000E+00  0.00000000E+00  0.00000000E+00  0.00000000E+00  0.00000000E+00
  0.00000000E+00  0.00000000E+00  0.00000000E+00  0.00000000E+00  0.00000000E+00
%FLAG LENNARD_JONES_ACOEF                                                       
%FORMAT(5E16.8)                                                                 
  4.26366419E+06  1.73376823E+06  6.96551276E+05  2.09089895E+06  8.43969952E+05
  1.02073671E+06  1.30884564E+06  5.17507491E+05  6.30925504E+05  3.76435470E+05
  1.74537186E+06  6.99381362E+05  8.48258258E+05  5.17814271E+05  7.01825028E+05
  1.75889445E+06  7.01106848E+05  8.52084164E+05  5.15491878E+05  7.02755693E+05
  7.02078680E+05  1.12086734E+06  4.46121722E+05  5.42502534E+05  3.27367585E+05
  4.47026838E+05  4.46307018E+05  2.83662575E+05  2.04935397E+06  8.17329084E+05
  9.93125065E+05  6.01376873E+05  8.19347611E+05  8.18751801E+05  5.20510209E+05
  9.54790629E+05  1.48082758E+06  5.92438683E+05  7.18991463E+05  4.37717034E+05
  5.94304835E+05  5.94682930E+05  3.78207390E+05  6.93394194E+05  5.03152404E+05
  2.29022351E+06  8.78080588E+05  1.08339010E+06  6.13063863E+05  8.72740728E+05
  8.57202189E+05  5.42300297E+05  1.00141202E+06  7.34758402E+05  9.21656095E+05
  1.95762765E+05  7.52549148E+04  9.27554496E+04  5.27277400E+04  7.48403283E+04
  7.35931098E+04  4.65732396E+04  8.59636060E+04  6.30298721E+04  7.98194249E+04
  6.90855956E+03  2.11783234E+05  8.12662403E+04  1.00235148E+05  5.68021765E+04
  8.07866982E+04  7.93773615E+04  5.02224902E+04  9.27277603E+04  6.80216136E+04
  8.55808446E+04  7.41026906E+03  7.94617769E+03  5.15374979E+03  1.71458823E+03
  2.23577481E+03  9.87857350E+02  1.65195713E+03  1.52360475E+03  9.46795083E+02
  1.79157166E+03  1.36475542E+03  1.00942006E+03  9.04434904E+01  9.47421632E+01
  1.34728399E-01  1.48672098E+05  5.63013422E+04  6.97998263E+04  3.86646725E+04
  5.58085097E+04  5.45183252E+04  3.44374471E+04  6.37258620E+04  4.69084694E+04
  5.62691404E+04  4.88692384E+03  5.22955465E+03  5.24570081E+01  3.39005767E+03
  7.35778500E+02  2.25372434E+02  3.03553352E+02  1.15813907E+02  2.13197010E+02
  1.89434762E+02  1.16469347E+02  2.23617883E+02  1.74176419E+02  9.31864851E+01
  8.53132435E+00  8.80612241E+00  2.61760843E-03  4.36660257E+00  1.10360882E-05
  4.80874647E+04  1.74110867E+04  2.19657590E+04  1.12566992E+04  1.70902479E+04
  1.63679607E+04  1.02811573E+04  1.91715719E+04  1.42796035E+04  1.45326307E+04
  1.27542632E+03  1.35510742E+03  7.30589786E+00  8.33358592E+02  4.00077273E-01
  1.70079100E+02
%FLAG LENNARD_JONES_BCOEF                                                       
%FORMAT(5E16.8)                                                                 
  2.19459223E+03  1.07629402E+03  5.24668528E+02  1.20800124E+03  5.90251928E+02
  6.63431737E+02  1.03157656E+03  4.98871431E+02  5.62969425E+02  4.69350655E+02
  1.12747567E+03  5.48900066E+02  6.17825399E+02  5.21008860E+02  5.74088001E+02
  1.22973599E+03  5.97113873E+02  6.72777963E+02  5.64804067E+02  6.24158704E+02
  6.77820248E+02  8.01230425E+02  3.88758656E+02  4.38146883E+02  3.67361018E+02
  4.06301077E+02  4.41089616E+02  2.87011518E+02  1.42122969E+03  6.90283231E+02
  7.77671659E+02  6.53166727E+02  7.21590374E+02  7.83721154E+02  5.10021392E+02
  9.06156687E+02  9.79758754E+02  4.76608379E+02  5.36620538E+02  4.51916854E+02
  4.98393522E+02  5.41675626E+02  3.52573684E+02  6.26253907E+02  4.32634597E+02
  2.78689013E+03  1.32715352E+03  1.50664821E+03  1.22328790E+03  1.38141570E+03
  1.48748365E+03  9.65647936E+02  1.72139587E+03  1.19579782E+03  3.06326052E+03
  2.29782888E+02  1.09570372E+02  1.24325688E+02  1.01173582E+02  1.14083104E+02
  1.22913863E+02  7.98066064E+01  1.42233990E+02  9.87712192E+01  2.54229244E+02
  2.10929191E+01  2.54804909E+02  1.21392023E+02  1.37787728E+02  1.11953944E+02
  1.26366740E+02  1.36094315E+02  8.83545880E+01  1.57492664E+02  1.09393126E+02
  2.80652463E+02  2.32899892E+01  2.57122925E+01  3.30984635E+01  1.46824710E+01
  1.71355763E+01  1.22938581E+01  1.50468782E+01  1.57004457E+01  1.01016461E+01
  1.82287422E+01  1.29026271E+01  2.53805311E+01  2.14252117E+00  2.33785449E+00
  7.34107347E-02  2.13489607E+02  1.01040256E+02  1.14981426E+02  9.23664132E+01
  1.05029928E+02  1.12788003E+02  7.31636661E+01  1.30560951E+02  9.08431526E+01
  2.27570369E+02  1.89134207E+01  2.08590256E+01  1.73959275E+00  1.67944276E+01
  1.03548588E+01  4.40751799E+00  5.22789272E+00  3.48534600E+00  4.47571103E+00
  4.58384710E+00  2.93355636E+00  5.33233396E+00  3.81654050E+00  6.38507010E+00
  5.44840215E-01  5.90150328E-01  8.47240681E-03  4.15568027E-01  4.55498033E-04
  1.21416565E+02  5.61885732E+01  6.45020662E+01  4.98382106E+01  5.81215296E+01
  6.18000664E+01  3.99761520E+01  7.16117531E+01  5.01215671E+01  1.15651879E+02
  9.66228818E+00  1.06181419E+01  6.49206153E-01  8.32679019E+00  1.25788875E-01
  3.76172582E+00
%FLAG BONDS_INC_HYDROGEN                                                        
%FORMAT(10I8)                                                                   
      12     117       8      18     120      11      18     123      11      24
     126      13      27     129      15      27     132      15      30     135
      15      30     138      15      33     141      17      33     144      17
      45     147      20      48     150      20      57     153      20      60
     156      20      78     159      26      78     162      26      78     165
      26      87     168      20      90     171      15      90     174      15
      93     177      15      93     180      15      96     183      29      99
     186      20     102     189      20     105     192      31     105     195
      31     108     198      31     108     201      31     111     204      33
     114     207      34     114     210      34     114     213      34
%FLAG BONDS_WITHOUT_HYDROGEN                                                    
%FORMAT(10I8)                                                                   
       0       3       1       0       6       1       3       9       2       3
      12       3       6      15       3       6      18       4       9      21
       5       9      24       6      12      15       7      15      27       9
      18      30      10      24      33      12      27      36      14      30
      36      14      33      39      16      36      42      18      39      45
      19      39      48      19      42      51       5      42      54       2
      45      57      19      48      60      19      54      63      21      54
      66       3      57      69      19      60      69      19      63      72
      22      66      75      23      66      78      24      69      81      25
      72      84      19      72      75      19      75      87      19      81
      90      27      81      93      27      84      96      28      84      99
      19      87     102      19      90     105      10      93     108      10
      99     102      19     105     111      30     108     111      30     111
     114      32
%FLAG ANGLES_INC_HYDROGEN                                                       
%FORMAT(10I8)                                                                   
       3      12     117       8       6      18     120      11       6      18
     123      11       9      24     126      14      15      12     117      17
      15      27     129      19      15      27     132      19      18      30
     135      21      18      30     138      21      24      33     141      24
      24      33     144      24      30      18     120      27      30      18
     123      27      33      24     126      28      36      27     129      30
      36      27     132      30      36      30     135      30      36      30
     138      30      39      33     141      33      39      33     144      33
      39      45     147      35      39      48     150      35      45      57
     153      35      48      60     156      35      57      45     147      35
      60      48     150      35      66      78     159      44      66      78
     162      44      66      78     165      44      69      57     153      35
      69      60     156      35      75      87     168      35      81      90
     171      49      81      90     174      49      81      93     177      49
      81      93     180      49      84      96     183      50      84      99
     186      35      87     102     189      35      90     105     192      53
      90     105     195      53      93     108     198      53      93     108
     201      53      99     102     189      35     102      87     168      35
     102      99     186      35     105      90     171      21     105      90
     174      21     105     111     204      56     108      93     177      21
     108      93     180      21     108     111     204      56     111     105
     192      57     111     105     195      57     111     108     198      57
     111     108     201      57     111     114     207      58     111     114
     210      58     111     114     213      58     114     111     204      59
     120      18     123      60     129      27     132      61     135      30
     138      61     141      33     144      62     159      78     162      63
     159      78     165      63     162      78     165      63     171      90
     174      61     177      93     180      61     192     105     195      64
     198     108     201      64     207     114     210      65     207     114
     213      65     210     114     213      65
%FLAG ANGLES_WITHOUT_HYDROGEN                                                   
%FORMAT(10I8)                                                                   
       0       3       9       1       0       3      12       2       0       6
      15       2       0       6      18       3       3       0       6       4
       3       9      21       5       3       9      24       6       3      12
      15       7       6      15      12       7       6      15      27       9
       6      18      30      10       9       3      12      12       9      24
      33      13      12      15      27      15      15       6      18      16
      15      27      36      18      18      30      36      20      21       9
      24      22      24      33      39      23      27      36      30      25
      27      36      42      26      30      36      42      26      33      39
      45      29      33      39      48      29      36      42      51      31
      36      42      54      32      39      45      57      34      39      48
      60      34      42      54      63      36      42      54      66      12
      45      39      48      34      45      57      69      34      48      60
      69      34      51      42      54       5      54      63      72      37
      54      66      75      38      54      66      78      39      57      69
      60      34      57      69      81      40      60      69      81      40
      63      54      66      41      63      72      84      42      63      72
      75      42      66      75      72      43      66      75      87      43
      69      81      90      45      69      81      93      45      72      84
      96      46      72      84      99      34      72      75      87      34
      75      66      78      47      75      72      84      34      75      87
     102      34      81      90     105      48      81      93     108      48
      84      99     102      34      87     102      99      34      90      81
      93      51      90     105     111      52      93     108     111      52
      96      84      99      46     105     111     108      54     105     111
     114      55     108     111     114      55
%FLAG DIHEDRALS_INC_HYDROGEN                                                    
%FORMAT(10I8)                                                                   
       0       3      12     117       2       0       6      18     120       3
       0       6      18     123       3       3       9      24     126       7
       6      15      12     117       2       6      15      27     129       3
       6      15      27     132       3       6      18      30     135      11
       6      18      30     138      11       9       3      12     117       2
       9      24      33     141      13       9      24      33     144      13
      12      15      27     129       3      12      15      27     132       3
      15       6      18     120       3      15       6      18     123       3
      21       9      24     126      18      21       9     -24     126       7
      27      15      12     117       2      27      36      30     135      12
      27      36      30     138      12      30      36      27     129      12
      30      36      27     132      12      33      39      45     147      19
      33      39      48     150      19      36      30      18     120      11
      36      30      18     123      11      39      33      24     126      12
      39      45      57     153      19      39      48      60     156      19
      42      36      27     129       5      42      36      27     132       5
      42      36      30     135       5      42      36      30     138       5
      45      39      33     141      12      45      39      33     144      12
      45      39      48     150      19      48      39      33     141      12
      48      39      33     144      12      48      39      45     147      19
      54      66      78     159       3      54      66      78     162       3
      54      66      78     165       3      57      69      60     156      19
      60      69      57     153      19      66      75      87     168      19
      69      57      45     147      19      69      60      48     150      19
      69      81      90     171      25      69      81      90     174      25
      69      81      93     177      25      69      81      93     180      25
      72      84      96     183      26      72      84      99     186      19
      72      75      87     168      19      75      66      78     159       3
      75      66      78     162       3      75      66      78     165       3
      75      87     102     189      19      81      69      57     153      19
      81      69      60     156      19      81      90     105     192      11
      81      90     105     195      11      81      93     108     198      11
      81      93     108     201      11      84      99     102     189      19
      87     102      99     186      19      90      81      93     177      12
      90      81      93     180      12      90     105     111     204      11
      93      81      90     171      12      93      81      90     174      12
      93     108     111     204      11      96      84      99     186      19
      99      84      96     183      26      99     102      87     168      19
     105     111     108     198      11     105     111     108     201      11
     105     111     114     207      11     105     111     114     210      11
     105     111     114     213      11     108     111     105     192      11
     108     111     105     195      11     108     111     114     207      11
     108     111     114     210      11     108     111     114     213      11
     111     105      90     171      11     111     105      90     174      11
     111     108      93     177      11     111     108      93     180      11
     114     111     105     192      11     114     111     105     195      11
     114     111     108     198      11     114     111     108     201      11
     120      18      30     135      11     120      18      30     138      11
     123      18      30     135      11     123      18      30     138      11
     126      24      33     141      12     126      24      33     144      12
     147      45      57     153      19     150      48      60     156      19
     168      87     102     189      19     171      90     105     192      11
     171      90     105     195      11     174      90     105     192      11
     174      90     105     195      11     177      93     108     198      11
     177      93     108     201      11     180      93     108     198      11
     180      93     108     201      11     186      99     102     189      19
     192     105     111     204      29     195     105     111     204      29
     198     108     111     204      29     201     108     111     204      29
     204     111     114     207      29     204     111     114     210      29
     204     111     114     213      29       3      15     -12    -117      30
       9      33     -24    -126      31      39      57     -45    -147      31
      39      60     -48    -150      31      45      69     -57    -153      31
      48      69     -60    -156      31      75     102     -87    -168      31
      84     102     -99    -186      31      87      99    -102    -189      31
%FLAG DIHEDRALS_WITHOUT_HYDROGEN                                                
%FORMAT(10I8)                                                                   
       0       3       9      21       1       0       3       9      24       1
       0       3     -12      15       2       0       6     -15      12       2
       0       6      15      27       2       0       6      18      30       3
       3       0      -6      15       4       3       0      -6      15       5
       3       0      -6      15       3       3       0       6      18       6
       3       9      24      33       7       3      12     -15       6       2
       3      12      15      27       2       6       0       3       9       8
       6       0      -3       9       9       6       0      -3       9      10
       6       0      -3      12       4       6       0      -3      12       5
       6       0      -3      12       3       6      15      27      36       3
       6      18     -30      36      11       9       3      12      15       2
       9      24      33      39      12      12       3       9      21       1
      12       3       9      24       1      12      15       6      18       2
      12      15      27      36       3      15       6      18      30      14
      15      27     -36      30      12      15      27      36      42      12
      18       6      15      27       2      18      30     -36      27      12
      18      30      36      42      15      18      30     -36      42      16
      18      30     -36      42      17      21       9      24      33       7
      24      33      39      45      12      24      33      39      48      12
      27      36      42      51       7      27      36      42      54       7
      30      36      42      51       7      30      36      42      54       7
      33      39      45      57      19      33      39      48      60      19
      36      42      54      63       1      36      42      54      66       1
      39      45      57      69      19      39      48     -60      69      19
      42      54      63      72      20      42      54      66      75       2
      42      54      66      78       2      45      39      48      60      19
      45      57     -69      60      19      45      57      69      81      19
      48      39      45      57      19      48      60     -69      57      19
      48      60      69      81      19      51      42      54      63       1
      51      42      54      66       1      54      63      72      84      21
      54      63     -72      75      21      54      66     -75      72      22
      54      66      75      87      22      57      69      81      90      23
      57      69      81      93      23      60      69      81      90      23
      60      69      81      93      23      63      54     -66      75       2
      63      54      66      78       2      63      72      84      96      19
      63      72      84      99      19      63      72     -75      66      19
      63      72      75      87      19      66      54     -63      72      24
      66      75      72      84      19      66      75      87     102      19
      69      81      90     105      12      69      81      93     108      12
      72      84      99     102      19      72      75      66      78      27
      72      75     -87     102      19      75      72      84      96      19
      75      72      84      99      19      75      87    -102      99      19
      78      66      75      87      27      81      90     105     111      11
      81      93    -108     111      11      84      72      75      87      19
      84      99    -102      87      19      90      81      93     108      12
      90     105    -111     108      28      90     105     111     114      28
      93      81      90     105      12      93     108    -111     105      28
      93     108     111     114      28      96      84      99     102      19
       0       3     -12      -9      30       0       6     -15     -18      30
       3      24      -9     -21      30      27       6     -15     -12      30
      42      27     -36     -30      31      45      48     -39     -33      31
      54      36     -42     -51      30      42      66     -54     -63      30
      78      75     -66     -54      30      57      60     -69     -81      30
      75      84     -72     -63      30      72      87     -75     -66      31
      90      93     -81     -69      31      72      99     -84     -96      30
%FLAG EXCLUDED_ATOMS_LIST                                                       
%FORMAT(10I8)                                                                   
       2       3       4       5       6       7       8       9      10      11
      40      41      42       3       4       5       6       7       8       9
      10      12      40      43       4       5       6       7      10      11
      13      40      41      42      44      45      46      47       5       6
       8       9      12      14      40      43      48      49       6       7
       8       9      10      13      40      44      45       7      10      11
      13      15      40      41      42      44      45      10      11      13
      15      41      42      46      47       9      12      43      12      14
      16      17      43      48      49      11      13      15      18      19
      40      44      45      46      47      13      15      18      19      41
      42      44      45      46      47      14      16      17      20      21
      43      48      49      50      51      15      18      19      22      23
      41      42      44      45      46      47      16      17      20      21
      24      43      48      49      50      51      52      53      18      19
      22      23      25      26      27      44      45      46      47      17
      20      21      24      28      48      49      50      51      52      20
      21      24      28      48      49      50      51      53      19      22
      23      22      23      25      26      27      29      30      54      55
      56      21      24      28      31      32      50      52      53      24
      28      31      32      51      52      53      23      25      26      27
      29      30      33      34      25      26      27      29      30      35
      54      55      56      57      28      31      32      36      37      50
      51      52      53      58      59      60      61      26      27      29
      30      33      34      35      57      62      63      27      29      30
      33      34      35      54      55      56      57      64      30      54
      55      56      31      32      36      37      38      52      53      58
      59      60      61      65      66      67      68      30      33      34
      35      62      63      64      34      35      57      63      64      32
      36      37      38      39      58      59      60      61      65      66
      69      36      37      38      39      58      59      60      61      67
      68      69      34      35      62      63      35      57      62      63
      64      57      63      64      37      38      39      58      59      65
      66      67      68      69      70      71      72      38      39      60
      61      65      66      67      68      69      70      71      72      39
      58      59      60      61      65      66      67      68      69      70
      71      72      65      66      67      68      69      70      71      72
       0      42      46      47      46      47      48      49      45       0
      47       0      49       0      52      53       0       0      55      56
      56       0      64      59      65      66      65      66      61      67
      68      67      68       0      64       0      66      69      69      68
      69      69      70      71      72      71      72      72       0
%FLAG HBOND_ACOEF                                                               
%FORMAT(5E16.8)                                                                 

%FLAG HBOND_BCOEF                                                               
%FORMAT(5E16.8)                                                                 

%FLAG HBCUT                                                                     
%FORMAT(5E16.8)                                                                 

%FLAG AMBER_ATOM_TYPE                                                           
%FORMAT(20a4)                                                                   
ss  cc  cc  c   cd  cd  c6  o   ns  c6  c6  c3  n   ca  c   ca  ca  o   cc  ca  
ca  os  cd  ca  ca  ca  c3  nh  ca  ca  c6  c6  oh  ca  ca  c6  c6  nx  c3  ha  
hc  hc  hn  h1  h1  h1  h1  h1  h1  ha  ha  ha  ha  hc  hc  hc  ha  h1  h1  h1  
h1  ho  ha  ha  hx  hx  hx  hx  hn  hx  hx  hx  
%FLAG TREE_CHAIN_CLASSIFICATION                                                 
%FORMAT(20a4)                                                                   
BLA BLA BLA BLA BLA BLA BLA BLA BLA BLA BLA BLA BLA BLA BLA BLA BLA BLA BLA BLA 
BLA BLA BLA BLA BLA BLA BLA BLA BLA BLA BLA BLA BLA BLA BLA BLA BLA BLA BLA BLA 
BLA BLA BLA BLA BLA BLA BLA BLA BLA BLA BLA BLA BLA BLA BLA BLA BLA BLA BLA BLA 
BLA BLA BLA BLA BLA BLA BLA BLA BLA BLA BLA BLA 
%FLAG JOIN_ARRAY                                                                
%FORMAT(10I8)                                                                   
       0       0       0       0       0       0       0       0       0       0
       0       0       0       0       0       0       0       0       0       0
       0       0       0       0       0       0       0       0       0       0
       0       0       0       0       0       0       0       0       0       0
       0       0       0       0       0       0       0       0       0       0
       0       0       0       0       0       0       0       0       0       0
       0       0       0       0       0       0       0       0       0       0
       0       0
%FLAG IROTAT                                                                    
%FORMAT(10I8)                                                                   
       0       0       0       0       0       0       0       0       0       0
       0       0       0       0       0       0       0       0       0       0
       0       0       0       0       0       0       0       0       0       0
       0       0       0       0       0       0       0       0       0       0
       0       0       0       0       0       0       0       0       0       0
       0       0       0       0       0       0       0       0       0       0
       0       0       0       0       0       0       0       0       0       0
       0       0
%FLAG RADIUS_SET                                                                
%FORMAT(1a80)                                                                   
modified Bondi radii (mbondi)                                                   
%FLAG RADII                                                                     
%FORMAT(5E16.8)                                                                 
  1.80000000E+00  1.70000000E+00  1.70000000E+00  1.70000000E+00  1.70000000E+00
  1.70000000E+00  1.70000000E+00  1.50000000E+00  1.55000000E+00  1.70000000E+00
  1.70000000E+00  1.70000000E+00  1.55000000E+00  1.70000000E+00  1.70000000E+00
  1.70000000E+00  1.70000000E+00  1.50000000E+00  1.70000000E+00  1.70000000E+00
  1.70000000E+00  1.50000000E+00  1.70000000E+00  1.70000000E+00  1.70000000E+00
  1.70000000E+00  1.70000000E+00  1.55000000E+00  1.70000000E+00  1.70000000E+00
  1.70000000E+00  1.70000000E+00  1.50000000E+00  1.70000000E+00  1.70000000E+00
  1.70000000E+00  1.70000000E+00  1.55000000E+00  1.70000000E+00  1.30000000E+00
  1.30000000E+00  1.30000000E+00  1.30000000E+00  1.30000000E+00  1.30000000E+00
  1.30000000E+00  1.30000000E+00  1.30000000E+00  1.30000000E+00  1.30000000E+00
  1.30000000E+00  1.30000000E+00  1.30000000E+00  1.30000000E+00  1.30000000E+00
  1.30000000E+00  1.30000000E+00  1.30000000E+00  1.30000000E+00  1.30000000E+00
  1.30000000E+00  8.00000000E-01  1.30000000E+00  1.30000000E+00  1.30000000E+00
  1.30000000E+00  1.30000000E+00  1.30000000E+00  1.30000000E+00  1.30000000E+00
  1.30000000E+00  1.30000000E+00
%FLAG SCREEN                                                                    
%FORMAT(5E16.8)                                                                 
  9.60000000E-01  7.20000000E-01  7.20000000E-01  7.20000000E-01  7.20000000E-01
  7.20000000E-01  7.20000000E-01  8.50000000E-01  7.90000000E-01  7.20000000E-01
  7.20000000E-01  7.20000000E-01  7.90000000E-01  7.20000000E-01  7.20000000E-01
  7.20000000E-01  7.20000000E-01  8.50000000E-01  7.20000000E-01  7.20000000E-01
  7.20000000E-01  8.50000000E-01  7.20000000E-01  7.20000000E-01  7.20000000E-01
  7.20000000E-01  7.20000000E-01  7.90000000E-01  7.20000000E-01  7.20000000E-01
  7.20000000E-01  7.20000000E-01  8.50000000E-01  7.20000000E-01  7.20000000E-01
  7.20000000E-01  7.20000000E-01  7.90000000E-01  7.20000000E-01  8.50000000E-01
  8.50000000E-01  8.50000000E-01  8.50000000E-01  8.50000000E-01  8.50000000E-01
  8.50000000E-01  8.50000000E-01  8.50000000E-01  8.50000000E-01  8.50000000E-01
  8.50000000E-01  8.50000000E-01  8.50000000E-01  8.50000000E-01  8.50000000E-01
  8.50000000E-01  8.50000000E-01  8.50000000E-01  8.50000000E-01  8.50000000E-01
  8.50000000E-01  8.50000000E-01  8.50000000E-01  8.50000000E-01  8.50000000E-01
  8.50000000E-01  8.50000000E-01  8.50000000E-01  8.50000000E-01  8.50000000E-01
  8.50000000E-01  8.50000000E-01
%FLAG IPOL                                                                      
%FORMAT(1I8)                                                                    
       0
