MOL
    58
  24.0140000   3.2660000 -30.5830000  25.3400000   3.0840000 -30.3300000
  25.6690000   1.8960000 -30.9090000  25.9900000   4.0420000 -31.0500000
  25.6860000   3.1300000 -28.8610000  26.4820000   2.1380000 -28.2730000
  25.2060000   4.1760000 -28.0600000  26.7940000   2.1960000 -26.9110000
  25.5160000   4.2300000 -26.6990000  26.3210000   3.2440000 -26.1110000
  26.6190000   3.2810000 -24.6360000  25.6370000   2.5550000 -23.8690000
  25.8560000   1.2610000 -23.4550000  26.8540000   0.6070000 -23.7590000
  24.7670000   0.6590000 -22.5980000  24.7990000   0.9460000 -21.2620000
  23.7950000  -0.1130000 -23.2140000  23.7780000   0.4570000 -20.5050000
  22.7710000  -0.6110000 -22.4220000  22.7500000  -0.3290000 -21.0500000
  23.7970000   0.7640000 -19.0050000  21.5790000  -0.7880000 -20.2210000
  22.5090000   0.5300000 -18.3540000  21.8270000  -0.7020000 -18.7190000
  22.1060000   1.3160000 -17.2690000  22.9310000   1.8870000 -16.5560000
  20.6690000   1.6320000 -17.2290000  19.9950000   1.0150000 -16.1920000
  19.7440000   1.7570000 -18.2700000  19.1630000   0.1580000 -16.8210000
  19.0110000   0.5340000 -18.1490000  19.6670000   2.7370000 -19.3800000
  18.6300000  -0.9860000 -16.2450000  18.2770000  -0.3080000 -18.9990000
  17.9870000  -1.8580000 -17.1240000  17.8220000  -1.5300000 -18.4760000
  27.1120000   2.3780000 -27.4920000  25.5690000   3.6990000 -28.9000000
  26.4320000   2.6680000 -26.0680000  24.8830000   3.9790000 -27.4750000
  26.4320000   3.7580000 -23.6970000  26.0850000   2.3570000 -24.7120000
  26.2760000   3.1790000 -24.2840000  23.0800000  -0.7790000 -22.8820000
  21.8380000  -0.6000000 -22.8630000  24.7260000   0.2350000 -19.0600000
  23.8250000   1.5480000 -18.2760000  20.6090000  -0.3540000 -20.0900000
  21.6380000  -1.3900000 -21.1030000  21.6030000   0.0670000 -18.0100000
  21.7620000  -0.3320000 -19.7210000  19.3960000   3.6930000 -18.9830000
  19.5630000   2.7500000 -20.4450000  20.6820000   2.5180000 -19.1220000
  17.6880000  -1.2840000 -15.9470000  19.1560000   0.0130000 -19.4340000
  17.7760000  -2.8680000 -17.1130000  18.5100000  -2.2260000 -18.8020000
