%VERSION  VERSION_STAMP = V0001.000  DATE = 09/01/26  08:23:21                  
%FLAG TITLE                                                                     
%FORMAT(20a4)                                                                   
MOL                                                                             
%FLAG POINTERS                                                                  
%FORMAT(10I8)                                                                   
      73      14      34      44      77      63     134     103       0       0
     415       1      44      63     103      30      60      33      18       0
       0       0       0       0       0       0       0       0      73       0
       0
%FLAG ATOM_NAME                                                                 
%FORMAT(20a4)                                                                   
O1  C1  N1  C2  C3  N2  C4  C5  C6  C7  C8  C9  C10 C11 C12 C13 C14 N3  C15 C16 
C17 N4  O2  C18 C19 C20 O3  C21 C22 C23 C24 C25 C26 N5  C27 C28 C29 C30 C31 H1  
H2  H3  H4  H5  H6  H7  H8  H9  H10 H11 H12 H13 H14 H15 H16 H17 H18 H19 H20 H21 
H22 H23 H24 H25 H26 H27 H28 H29 H30 H31 H32 H33 H34 
%FLAG CHARGE                                                                    
%FORMAT(5E16.8)                                                                 
 -1.11720921E+01  1.04523113E+01 -9.98399817E+00  6.39238284E+00  2.37436569E+00
 -1.19902734E+01 -3.35836989E+00 -1.90058589E+00  7.02651888E+00 -1.84045230E+00
 -1.71289620E+00 -1.71289620E+00 -2.83538988E+00  5.41202310E-01 -2.64223350E+00
 -2.64223350E+00 -1.24093863E+00 -8.14172364E+00  1.46871738E+00  1.53067320E+00
  1.28521882E+01 -1.16440497E+01 -1.06436454E+01 -1.11338253E+00  2.91192354E+00
  2.91192354E+00 -3.73921596E+00 -2.98845720E-01  1.90058589E+00  1.90058589E+00
  1.36849473E+00 -2.25592074E+00 -9.82181970E-01 -1.24531198E+01 -2.36889900E+00
 -1.22089410E+00  1.53249543E+00 -1.74934080E+00 -2.71512270E+00  6.02247015E+00
  1.37942811E+00  1.37942811E+00  3.07956870E+00  2.75156730E+00  2.96112375E+00
  2.96112375E+00  1.61631801E+00  1.61631801E+00  2.45089935E+00  2.45089935E+00
  1.34298351E+00  1.34298351E+00  1.26098316E+00  1.26098316E+00  1.45687288E+00
  1.45687288E+00  1.45687288E+00  1.45687288E+00  1.98076401E+00  1.98076401E+00
  1.98076401E+00  1.98076401E+00  1.13647018E+00  1.13647018E+00  1.13647018E+00
  8.10527904E+00  2.75156730E+00  2.64223350E+00  1.91394284E+00  1.91394284E+00
  1.91394284E+00  2.58756660E+00  2.56934430E+00
%FLAG ATOMIC_NUMBER                                                             
%FORMAT(10I8)                                                                   
       8       6       7       6       6       7       6       6       6       6
       6       6       6       6       6       6       6       7       6       6
       6       7       8       6       6       6       8       6       6       6
       6       6       6       7       6       6       6       6       6       1
       1       1       1       1       1       1       1       1       1       1
       1       1       1       1       1       1       1       1       1       1
       1       1       1       1       1       1       1       1       1       1
       1       1       1
%FLAG MASS                                                                      
%FORMAT(5E16.8)                                                                 
  1.60000000E+01  1.20100000E+01  1.40100000E+01  1.20100000E+01  1.20100000E+01
  1.40100000E+01  1.20100000E+01  1.20100000E+01  1.20100000E+01  1.20100000E+01
  1.20100000E+01  1.20100000E+01  1.20100000E+01  1.20100000E+01  1.20100000E+01
  1.20100000E+01  1.20100000E+01  1.40100000E+01  1.20100000E+01  1.20100000E+01
  1.20100000E+01  1.40100000E+01  1.60000000E+01  1.20100000E+01  1.20100000E+01
  1.20100000E+01  1.60000000E+01  1.20100000E+01  1.20100000E+01  1.20100000E+01
  1.20100000E+01  1.20100000E+01  1.20100000E+01  1.40100000E+01  1.20100000E+01
  1.20100000E+01  1.20100000E+01  1.20100000E+01  1.20100000E+01  1.00800000E+00
  1.00800000E+00  1.00800000E+00  1.00800000E+00  1.00800000E+00  1.00800000E+00
  1.00800000E+00  1.00800000E+00  1.00800000E+00  1.00800000E+00  1.00800000E+00
  1.00800000E+00  1.00800000E+00  1.00800000E+00  1.00800000E+00  1.00800000E+00
  1.00800000E+00  1.00800000E+00  1.00800000E+00  1.00800000E+00  1.00800000E+00
  1.00800000E+00  1.00800000E+00  1.00800000E+00  1.00800000E+00  1.00800000E+00
  1.00800000E+00  1.00800000E+00  1.00800000E+00  1.00800000E+00  1.00800000E+00
  1.00800000E+00  1.00800000E+00  1.00800000E+00
%FLAG ATOM_TYPE_INDEX                                                           
%FORMAT(10I8)                                                                   
       1       2       3       2       4       5       2       2       2       2
       2       2       2       4       2       2       4       6       2       4
       2       7       1       2       4       4       8       2       4       4
       2       2       4       9       2       2       4       2       2      10
      11      11      12      12      12      12      11      11      12      12
      13      13      11      11      11      11      11      11      14      14
      14      14      13      13      13      10      12      12      14      14
      14      12      12
%FLAG NUMBER_EXCLUDED_ATOMS                                                     
%FORMAT(10I8)                                                                   
       7      12      10      10      10      10       6      12      12       8
      10       9      12      10       8       7       8      12      13       9
      11      15       3      10      12      11       8      10      13      12
       9      11       4      13       6       5       8       5       4       2
       1       1       1       1       1       1       1       1       1       1
       3       2       1       1       3       2       3       2       2       1
       2       1       2       1       1       3       1       1       2       1
       1       1       1
%FLAG NONBONDED_PARM_INDEX                                                      
%FORMAT(10I8)                                                                   
       1       2       4       7      11      16      22      29      37      46
      56      67      79      92       2       3       5       8      12      17
      23      30      38      47      57      68      80      93       4       5
       6       9      13      18      24      31      39      48      58      69
      81      94       7       8       9      10      14      19      25      32
      40      49      59      70      82      95      11      12      13      14
      15      20      26      33      41      50      60      71      83      96
      16      17      18      19      20      21      27      34      42      51
      61      72      84      97      22      23      24      25      26      27
      28      35      43      52      62      73      85      98      29      30
      31      32      33      34      35      36      44      53      63      74
      86      99      37      38      39      40      41      42      43      44
      45      54      64      75      87     100      46      47      48      49
      50      51      52      53      54      55      65      76      88     101
      56      57      58      59      60      61      62      63      64      65
      66      77      89     102      67      68      69      70      71      72
      73      74      75      76      77      78      90     103      79      80
      81      82      83      84      85      86      87      88      89      90
      91     104      92      93      94      95      96      97      98      99
     100     101     102     103     104     105
%FLAG RESIDUE_LABEL                                                             
%FORMAT(20a4)                                                                   
MOL 
%FLAG RESIDUE_POINTER                                                           
%FORMAT(10I8)                                                                   
       1
%FLAG BOND_FORCE_CONSTANT                                                       
%FORMAT(5E16.8)                                                                 
  5.90600000E+02  3.36070000E+02  2.62840000E+02  2.61660000E+02  4.73590000E+02
  3.86490000E+02  3.54250000E+02  2.43910000E+02  3.44220000E+02  3.60690000E+02
  2.39730000E+02  2.52360000E+02  3.42020000E+02  2.26810000E+02  3.42750000E+02
  3.17460000E+02  3.10840000E+02  2.81780000E+02  2.52920000E+02  3.51190000E+02
  3.86240000E+02  3.43340000E+02  2.88790000E+02  2.53870000E+02  2.16590000E+02
  3.49850000E+02  3.45250000E+02  2.19760000E+02  4.31010000E+02  3.52860000E+02
%FLAG BOND_EQUIL_VALUE                                                          
%FORMAT(5E16.8)                                                                 
  1.21900000E+00  1.37980000E+00  1.49070000E+00  1.45560000E+00  1.01320000E+00
  1.33920000E+00  1.39860000E+00  1.51470000E+00  1.09690000E+00  1.08600000E+00
  1.52030000E+00  1.46690000E+00  1.09840000E+00  1.53840000E+00  1.09790000E+00
  1.39670000E+00  1.40300000E+00  1.46870000E+00  1.46620000E+00  1.36220000E+00
  1.37300000E+00  1.36880000E+00  1.46100000E+00  1.50180000E+00  1.51560000E+00
  1.09310000E+00  1.09620000E+00  1.51090000E+00  1.03380000E+00  1.09110000E+00
%FLAG ANGLE_FORCE_CONSTANT                                                      
%FORMAT(5E16.8)                                                                 
  8.72100000E+01  7.79600000E+01  7.69000000E+01  5.73700000E+01  6.70900000E+01
  6.14400000E+01  6.70600000E+01  6.58400000E+01  4.83900000E+01  8.31500000E+01
  6.36700000E+01  4.49000000E+01  5.46200000E+01  6.07400000E+01  6.81700000E+01
  6.68100000E+01  4.38100000E+01  6.06600000E+01  6.55100000E+01  4.38000000E+01
  6.02800000E+01  4.36900000E+01  7.66300000E+01  7.69600000E+01  6.71800000E+01
  6.52900000E+01  4.32800000E+01  4.80600000E+01  8.66800000E+01  6.80100000E+01
  7.72200000E+01  4.32300000E+01  7.70000000E+01  6.22000000E+01  6.55700000E+01
  4.79000000E+01  7.83600000E+01  9.56300000E+01  6.16400000E+01  6.00600000E+01
  7.75900000E+01  6.43500000E+01  4.29100000E+01  8.26200000E+01  7.90000000E+01
  6.20200000E+01  4.39500000E+01  7.55500000E+01  7.50600000E+01  5.49800000E+01
  5.86200000E+01  4.71000000E+01  4.68800000E+01  5.52900000E+01  3.56400000E+01
  3.57700000E+01  3.59300000E+01  3.57700000E+01  3.58000000E+01  3.56300000E+01
%FLAG ANGLE_EQUIL_VALUE                                                         
%FORMAT(5E16.8)                                                                 
  2.14762857E+00  2.13977458E+00  2.12860447E+00  2.04657396E+00  2.05390434E+00
  2.10015559E+00  2.00870030E+00  1.95511867E+00  1.89350852E+00  2.04622489E+00
  2.09474507E+00  2.09230160E+00  2.04936649E+00  2.10888224E+00  2.14570870E+00
  2.01917228E+00  1.91288168E+00  2.10486798E+00  1.95284974E+00  1.90118797E+00
  1.95424600E+00  1.91061275E+00  2.10259905E+00  1.99089793E+00  2.11411823E+00
  1.94028336E+00  1.90555129E+00  1.89403212E+00  2.13925098E+00  1.96681238E+00
  2.06350366E+00  1.91026369E+00  2.08025883E+00  2.11743436E+00  1.92474992E+00
  1.90799476E+00  2.16525640E+00  1.84830447E+00  2.16927066E+00  2.21098404E+00
  1.96052919E+00  1.93836350E+00  1.94045789E+00  1.94656655E+00  2.07886256E+00
  2.10888224E+00  1.93068405E+00  1.93539644E+00  1.96663784E+00  1.86994656E+00
  2.20138473E+00  1.86488511E+00  1.89350852E+00  1.86017271E+00  1.89455572E+00
  1.87622975E+00  1.86087085E+00  1.89420665E+00  1.88024401E+00  1.91619781E+00
%FLAG DIHEDRAL_FORCE_CONSTANT                                                   
%FORMAT(5E16.8)                                                                 
  2.50000000E+00  2.00000000E+00  1.00000000E+00  5.80000000E-01  0.00000000E+00
  0.00000000E+00  4.80000000E+00  3.62500000E+00  2.12250000E+00  3.00000000E+00
  2.00000000E+00  5.00000000E-01  2.40000000E-01  2.10000000E-01  1.55555556E-01
  7.53000000E-01  1.02000000E+00  1.70000000E-01  1.00000000E-01  2.87500000E+00
  3.32000000E-01  0.00000000E+00  2.64000000E+00  4.00000000E+00  1.82500000E+00
  3.77000000E+00  0.00000000E+00  1.56000000E-01  6.50000000E-01  6.00000000E-01
  1.09000000E-01  1.05000000E+01  1.10000000E+00
%FLAG DIHEDRAL_PERIODICITY                                                      
%FORMAT(5E16.8)                                                                 
  2.00000000E+00  1.00000000E+00  2.00000000E+00  2.00000000E+00  2.00000000E+00
  1.00000000E+00  2.00000000E+00  2.00000000E+00  2.00000000E+00  1.00000000E+00
  2.00000000E+00  3.00000000E+00  2.00000000E+00  3.00000000E+00  3.00000000E+00
  2.00000000E+00  1.00000000E+00  3.00000000E+00  4.00000000E+00  2.00000000E+00
  2.00000000E+00  2.00000000E+00  2.00000000E+00  2.00000000E+00  2.00000000E+00
  2.00000000E+00  3.00000000E+00  3.00000000E+00  1.00000000E+00  2.00000000E+00
  3.00000000E+00  2.00000000E+00  2.00000000E+00
%FLAG DIHEDRAL_PHASE                                                            
%FORMAT(5E16.8)                                                                 
  3.14159400E+00  0.00000000E+00  3.14159400E+00  3.14159400E+00  0.00000000E+00
  0.00000000E+00  3.14159400E+00  3.14159400E+00  3.14159400E+00  3.14159400E+00
  3.14159400E+00  0.00000000E+00  3.14159400E+00  0.00000000E+00  0.00000000E+00
  3.14159400E+00  3.14159400E+00  0.00000000E+00  3.14159400E+00  3.14159400E+00
  0.00000000E+00  3.14159400E+00  3.14159400E+00  3.14159400E+00  3.14159400E+00
  3.14159400E+00  0.00000000E+00  0.00000000E+00  3.14159400E+00  3.14159400E+00
  0.00000000E+00  3.14159400E+00  3.14159400E+00
%FLAG SCEE_SCALE_FACTOR                                                         
%FORMAT(5E16.8)                                                                 
  1.20000000E+00  1.20000000E+00  1.20000000E+00  1.20000000E+00  1.20000000E+00
  1.20000000E+00  1.20000000E+00  1.20000000E+00  1.20000000E+00  1.20000000E+00
  1.20000000E+00  1.20000000E+00  1.20000000E+00  1.20000000E+00  1.20000000E+00
  1.20000000E+00  1.20000000E+00  1.20000000E+00  1.20000000E+00  1.20000000E+00
  1.20000000E+00  1.20000000E+00  1.20000000E+00  1.20000000E+00  1.20000000E+00
  1.20000000E+00  1.20000000E+00  1.20000000E+00  1.20000000E+00  1.20000000E+00
  1.20000000E+00  0.00000000E+00  0.00000000E+00
%FLAG SCNB_SCALE_FACTOR                                                         
%FORMAT(5E16.8)                                                                 
  2.00000000E+00  2.00000000E+00  2.00000000E+00  2.00000000E+00  2.00000000E+00
  2.00000000E+00  2.00000000E+00  2.00000000E+00  2.00000000E+00  2.00000000E+00
  2.00000000E+00  2.00000000E+00  2.00000000E+00  2.00000000E+00  2.00000000E+00
  2.00000000E+00  2.00000000E+00  2.00000000E+00  2.00000000E+00  2.00000000E+00
  2.00000000E+00  2.00000000E+00  2.00000000E+00  2.00000000E+00  2.00000000E+00
  2.00000000E+00  2.00000000E+00  2.00000000E+00  2.00000000E+00  2.00000000E+00
  2.00000000E+00  0.00000000E+00  0.00000000E+00
%FLAG SOLTY                                                                     
%FORMAT(5E16.8)                                                                 
  0.00000000E+00  0.00000000E+00  0.00000000E+00  0.00000000E+00  0.00000000E+00
  0.00000000E+00  0.00000000E+00  0.00000000E+00  0.00000000E+00  0.00000000E+00
  0.00000000E+00  0.00000000E+00  0.00000000E+00  0.00000000E+00  0.00000000E+00
  0.00000000E+00  0.00000000E+00  0.00000000E+00
%FLAG LENNARD_JONES_ACOEF                                                       
%FORMAT(5E16.8)                                                                 
  3.76435470E+05  5.17507491E+05  6.96551276E+05  5.17814271E+05  6.99381362E+05
  7.01825028E+05  6.30925504E+05  8.43969952E+05  8.48258258E+05  1.02073671E+06
  5.74782316E+05  7.69642101E+05  7.73425391E+05  9.31115275E+05  8.49322032E+05
  5.15491878E+05  7.01106848E+05  7.02755693E+05  8.52084164E+05  7.76656876E+05
  7.02078680E+05  6.01376873E+05  8.17329084E+05  8.19347611E+05  9.93125065E+05
  9.05243612E+05  8.18751801E+05  9.54790629E+05  3.27367585E+05  4.46121722E+05
  4.47026838E+05  5.42502534E+05  4.94433451E+05  4.46307018E+05  5.20510209E+05
  2.83662575E+05  6.13063863E+05  8.78080588E+05  8.72740728E+05  1.08339010E+06
  9.85071815E+05  8.57202189E+05  1.00141202E+06  5.42300297E+05  9.21656095E+05
  9.87857350E+02  1.71458823E+03  1.65195713E+03  2.23577481E+03  2.01475241E+03
  1.52360475E+03  1.79157166E+03  9.46795083E+02  1.00942006E+03  1.34728399E-01
  3.86646725E+04  5.63013422E+04  5.58085097E+04  6.97998263E+04  6.34160397E+04
  5.45183252E+04  6.37258620E+04  3.44374471E+04  5.62691404E+04  5.24570081E+01
  3.39005767E+03  5.27277400E+04  7.52549148E+04  7.48403283E+04  9.27554496E+04
  8.43518904E+04  7.35931098E+04  8.59636060E+04  4.65732396E+04  7.98194249E+04
  9.04434904E+01  4.88692384E+03  6.90855956E+03  5.68021765E+04  8.12662403E+04
  8.07866982E+04  1.00235148E+05  9.11435380E+04  7.93773615E+04  9.27277603E+04
  5.02224902E+04  8.55808446E+04  9.47421632E+01  5.22955465E+03  7.41026906E+03
  7.94617769E+03  1.12566992E+04  1.74110867E+04  1.70902479E+04  2.19657590E+04
  1.99003866E+04  1.63679607E+04  1.91715719E+04  1.02811573E+04  1.45326307E+04
  7.30589786E+00  8.33358592E+02  1.27542632E+03  1.35510742E+03  1.70079100E+02
%FLAG LENNARD_JONES_BCOEF                                                       
%FORMAT(5E16.8)                                                                 
  4.69350655E+02  4.98871431E+02  5.24668528E+02  5.21008860E+02  5.48900066E+02
  5.74088001E+02  5.62969425E+02  5.90251928E+02  6.17825399E+02  6.63431737E+02
  5.19385932E+02  5.44830041E+02  5.70234696E+02  6.12468585E+02  5.65406768E+02
  5.64804067E+02  5.97113873E+02  6.24158704E+02  6.72777963E+02  6.20851625E+02
  6.77820248E+02  6.53166727E+02  6.90283231E+02  7.21590374E+02  7.77671659E+02
  7.17661669E+02  7.83721154E+02  9.06156687E+02  3.67361018E+02  3.88758656E+02
  4.06301077E+02  4.38146883E+02  4.04310927E+02  4.41089616E+02  5.10021392E+02
  2.87011518E+02  1.22328790E+03  1.32715352E+03  1.38141570E+03  1.50664821E+03
  1.38866053E+03  1.48748365E+03  1.72139587E+03  9.65647936E+02  3.06326052E+03
  1.22938581E+01  1.46824710E+01  1.50468782E+01  1.71355763E+01  1.57231024E+01
  1.57004457E+01  1.82287422E+01  1.01016461E+01  2.53805311E+01  7.34107347E-02
  9.23664132E+01  1.01040256E+02  1.05029928E+02  1.14981426E+02  1.05935811E+02
  1.12788003E+02  1.30560951E+02  7.31636661E+01  2.27570369E+02  1.73959275E+00
  1.67944276E+01  1.01173582E+02  1.09570372E+02  1.14083104E+02  1.24325688E+02
  1.14599119E+02  1.22913863E+02  1.42233990E+02  7.98066064E+01  2.54229244E+02
  2.14252117E+00  1.89134207E+01  2.10929191E+01  1.11953944E+02  1.21392023E+02
  1.26366740E+02  1.37787728E+02  1.27000718E+02  1.36094315E+02  1.57492664E+02
  8.83545880E+01  2.80652463E+02  2.33785449E+00  2.08590256E+01  2.32899892E+01
  2.57122925E+01  4.98382106E+01  5.61885732E+01  5.81215296E+01  6.45020662E+01
  5.93436142E+01  6.18000664E+01  7.16117531E+01  3.99761520E+01  1.15651879E+02
  6.49206153E-01  8.32679019E+00  9.66228818E+00  1.06181419E+01  3.76172582E+00
%FLAG BONDS_INC_HYDROGEN                                                        
%FORMAT(10I8)                                                                   
       6     117       5      12     120       9      12     123       9      18
     126      10      27     129      10      30     132      10      33     135
      10      39     138      13      39     141      13      42     144      10
      45     147      10      48     150      15      48     153      15      57
     156      13      57     159      13      72     162      13      72     165
      13      75     168      13      75     171      13      84     174      26
      84     177      26      87     180      26      87     183      26      96
     186      27      96     189      27      96     192      27      99     195
      29     102     198      10     105     201      10     108     204      30
     108     207      30     108     210      30     111     213      10     114
     216      10
%FLAG BONDS_WITHOUT_HYDROGEN                                                    
%FORMAT(10I8)                                                                   
       0       3       1       3       6       2       3       9       3       6
      12       4       9      15       6       9      18       7      12      21
       8      15      24       6      18      27       7      21      30       7
      21      33       7      24      36       7      24      39      11      27
      36       7      30      42       7      33      45       7      36      48
      11      39      51      12      42      54       7      45      54       7
      48      57      14      51      60      16      51      57      12      54
      63      17      60      66       1      60      69      18      63      72
      19      63      75      19      69      78      20      69      81      21
      72      84      14      75      87      14      78      90      22      81
      93      23      81      96      24      84      99      25      87      99
      25      90     102       7      90      93       7      93     105       7
      99     108      28     102     111       7     105     114       7     111
     114       7
%FLAG ANGLES_INC_HYDROGEN                                                       
%FORMAT(10I8)                                                                   
       3       6     117       4       6      12     120       9       6      12
     123       9       9      18     126      12      12       6     117      13
      18      27     129      12      21      12     120      17      21      12
     123      17      21      30     132      12      21      33     135      12
      24      39     138      20      24      39     141      20      27      18
     126      12      30      42     144      12      33      45     147      12
      36      27     129      12      36      48     150      22      36      48
     153      22      42      30     132      12      45      33     135      12
      48      57     156      27      48      57     159      27      51      39
     138      28      51      39     141      28      51      57     156      28
      51      57     159      28      54      42     144      12      54      45
     147      12      57      48     150      32      57      48     153      32
      63      72     162      36      63      72     165      36      63      75
     168      36      63      75     171      36      72      84     174      43
      72      84     177      43      75      87     180      43      75      87
     183      43      81      96     186      47      81      96     189      47
      81      96     192      47      84      72     162      27      84      72
     165      27      84      99     195      50      87      75     168      27
      87      75     171      27      87      99     195      50      90     102
     198      12      93     105     201      12      99      84     174      52
      99      84     177      52      99      87     180      52      99      87
     183      52      99     108     204      53      99     108     207      53
      99     108     210      53     102     111     213      12     105     114
     216      12     108      99     195      54     111     102     198      12
     111     114     216      12     114     105     201      12     114     111
     213      12     120      12     123      55     138      39     141      56
     150      48     153      57     156      57     159      56     162      72
     165      56     168      75     171      56     174      84     177      58
     180      87     183      58     186      96     189      59     186      96
     192      59     189      96     192      59     204     108     207      60
     204     108     210      60     207     108     210      60
%FLAG ANGLES_WITHOUT_HYDROGEN                                                   
%FORMAT(10I8)                                                                   
       0       3       6       1       0       3       9       2       3       6
      12       3       3       9      15       5       3       9      18       6
       6       3       9       7       6      12      21       8       9      15
      24      10       9      18      27      11      12      21      30      14
      12      21      33      14      15       9      18      15      15      24
      36      15      15      24      39      16      18      27      36      11
      21      30      42      11      21      33      45      11      24      36
      27      11      24      36      48      18      24      39      51      19
      27      36      48      18      30      21      33      11      30      42
      54      11      33      45      54      11      36      24      39      18
      36      48      57      21      39      51      60      23      39      51
      57      24      42      54      45      11      42      54      63      25
      45      54      63      25      48      57      51      26      51      60
      66      29      51      60      69      30      54      63      72      31
      54      63      75      31      57      51      60      23      60      69
      78      33      60      69      81      34      63      72      84      35
      63      75      87      35      66      60      69      37      69      78
      90      38      69      81      93      39      69      81      96      40
      72      63      75      41      72      84      99      42      75      87
      99      42      78      69      81      44      78      90     102      45
      78      90      93      45      81      93      90      46      81      93
     105      46      84      99      87      48      84      99     108      49
      87      99     108      49      90     102     111      11      90      93
     105      11      93      81      96      51      93      90     102      11
      93     105     114      11     102     111     114      11     105     114
     111      11
%FLAG DIHEDRALS_INC_HYDROGEN                                                    
%FORMAT(10I8)                                                                   
       0       3       6     117       2       0       3      -6     117       1
       3       6      12     120       6       3       6      12     123       6
       3       9      18     126       8       9       3       6     117       1
       9      18      27     129       8      12      21      30     132       8
      12      21      33     135       8      15       9      18     126       8
      15      24      39     138       5      15      24      39     141       5
      21      12       6     117       5      21      30      42     144       8
      21      33      45     147       8      24      36      27     129       8
      24      36      48     150       6      24      36      48     153       6
      27      36      48     150       6      27      36      48     153       6
      30      21      12     120       5      30      21      12     123       5
      30      21      33     135       8      33      21      12     120       5
      33      21      12     123       5      33      21      30     132       8
      36      24      39     138       5      36      24      39     141       5
      36      27      18     126       8      36      48      57     156      15
      36      48      57     159      15      39      51      57     156       5
      39      51      57     159       5      42      54      45     147       8
      45      54      42     144       8      48      36      27     129       8
      51      57      48     150      15      51      57      48     153      15
      54      42      30     132       8      54      45      33     135       8
      54      63      72     162      21      54      63      72     165      21
      54      63      75     168      21      54      63      75     171      21
      57      51      39     138       5      57      51      39     141       5
      60      51      39     138      22      60      51      39     141      22
      60      51      57     156      22      60      51      57     159      22
      63      54      42     144       8      63      54      45     147       8
      63      72      84     174      15      63      72      84     177      15
      63      75      87     180      15      63      75      87     183      15
      69      81      96     186      27      69      81      96     189      27
      69      81      96     192      27      72      63      75     168       5
      72      63      75     171       5      72      84      99     195      15
      75      63      72     162       5      75      63      72     165       5
      75      87      99     195      15      78      90     102     198       8
      81      93     105     201       8      84      99      87     180      15
      84      99      87     183      15      84      99     108     204      15
      84      99     108     207      15      84      99     108     210      15
      87      99      84     174      15      87      99      84     177      15
      87      99     108     204      15      87      99     108     207      15
      87      99     108     210      15      90     102     111     213       8
      90      93     105     201       8      93      81      96     186      27
      93      81      96     189      27      93      81      96     192      27
      93      90     102     198       8      93     105     114     216       8
      99      84      72     162      15      99      84      72     165      15
      99      87      75     168      15      99      87      75     171      15
     102     111     114     216       8     105     114     111     213       8
     108      99      84     174      15     108      99      84     177      15
     108      99      87     180      15     108      99      87     183      15
     111     114     105     201       8     114     111     102     198       8
     117       6      12     120       5     117       6      12     123       5
     126      18      27     129       8     132      30      42     144       8
     135      33      45     147       8     150      48      57     156      15
     150      48      57     159      15     153      48      57     156      15
     153      48      57     159      15     162      72      84     174      15
     162      72      84     177      15     165      72      84     174      15
     165      72      84     177      15     168      75      87     180      15
     168      75      87     183      15     171      75      87     180      15
     171      75      87     183      15     174      84      99     195      31
     177      84      99     195      31     180      87      99     195      31
     183      87      99     195      31     195      99     108     204      31
     195      99     108     207      31     195      99     108     210      31
     198     102     111     213       8     201     105     114     216       8
     213     111     114     216       8       3      12      -6    -117      33
       9      27     -18    -126      33      18      36     -27    -129      33
      21      42     -30    -132      33      21      45     -33    -135      33
      30      54     -42    -144      33      33      54     -45    -147      33
      90     111    -102    -198      33      93     114    -105    -201      33
     102     114    -111    -213      33     105     111    -114    -216      33
%FLAG DIHEDRALS_WITHOUT_HYDROGEN                                                
%FORMAT(10I8)                                                                   
       0       3       6      12       1       0       3       9      15       3
       0       3       9      18       4       3       6      12      21       5
       3       9      15      24       7       3       9      18      27       8
       6       3       9      15       3       6       3       9      18       9
       6      12      21      30       5       6      12      21      33       5
       9       3       6      12      10       9       3      -6      12      11
       9       3      -6      12      12       9      15      24      36       7
       9      15      24      39       7       9      18     -27      36       8
      12      21      30      42       8      12      21      33      45       8
      15       9      18      27       8      15      24     -36      27       8
      15      24      36      48       8      15      24      39      51       5
      18       9      15      24       7      18      27     -36      24       8
      18      27      36      48       8      21      30      42      54       8
      21      33     -45      54       8      24      36      48      57      13
      24      39      51      60       5      24      39     -51      57       5
      27      36      24      39       8      27      36      48      57      13
      30      21      33      45       8      30      42     -54      45       8
      30      42      54      63       8      33      21      30      42       8
      33      45     -54      42       8      33      45      54      63       8
      36      24      39      51       5      36      48     -57      51      14
      39      24      36      48       8      39      51      60      66       1
      39      51      60      69       1      39      51     -57      48       5
      42      54      63      72      16      42      54      63      75      16
      45      54      63      72      16      45      54      63      75      16
      48      57      51      60      17      48      57     -51      60      18
      48      57     -51      60      19      51      60      69      78      20
      51      60      69      81      20      54      63      72      84       5
      54      63      75      87       5      57      51      60      66       1
      57      51      60      69       1      60      69      78      90      23
      60      69      81      93      24      60      69      81      96      24
      63      72      84      99      15      63      75     -87      99      15
      66      60      69      78      20      66      60      69      81      20
      69      78      90     102      25      69      78     -90      93      25
      69      81     -93      90      26      69      81      93     105      26
      72      63      75      87       5      72      84     -99      87      28
      72      84      99     108      28      75      63      72      84       5
      75      87     -99      84      28      75      87      99     108      28
      78      69     -81      93      24      78      69      81      96      24
      78      90     102     111       8      78      90     -93      81       8
      78      90      93     105       8      81      69     -78      90      29
      81      93      90     102       8      81      93     105     114       8
      90     102     111     114       8      90      93      81      96      30
      90      93    -105     114       8      93      90     102     111       8
      93     105    -114     111       8      96      81      93     105      30
     102      90      93     105       8     102     111    -114     105       8
       0       3      -6      -9      32       3      18      -9     -15      32
      30      33     -21     -12      33      39      36     -24     -15      32
      48      24     -36     -27      32      60      39     -51     -57      33
      42      45     -54     -63      32      69      51     -60     -66      32
      72      75     -63     -54      33      60      81     -69     -78      32
      96      93     -81     -69      32      93     102     -90     -78      32
      90     105     -93     -81      33
%FLAG EXCLUDED_ATOMS_LIST                                                       
%FORMAT(10I8)                                                                   
       2       3       4       5       6       7      40       3       4       5
       6       7       8       9      10      40      41      42      43       4
       5       6       7       8      11      12      40      41      42       5
       6       7       9      10      13      14      40      43      44       8
      11      12      15      16      40      41      42      45      46       7
       9      10      13      14      17      18      43      47      48       9
      10      13      17      43      44      11      12      15      16      19
      40      41      42      45      46      49      50      10      13      14
      17      18      20      21      44      47      48      51      52      13
      14      17      20      43      44      51      52      12      15      16
      19      22      41      42      45      46      49      15      16      19
      22      41      42      45      46      50      14      17      18      20
      43      44      47      48      51      52      53      54      17      18
      20      21      23      24      47      48      53      54      16      19
      22      25      26      45      49      50      19      22      25      26
      46      49      50      18      20      21      44      51      52      53
      54      20      21      23      24      27      28      47      48      51
      52      53      54      22      25      26      29      30      45      46
      49      50      55      56      57      58      21      23      24      47
      48      51      52      53      54      23      24      27      28      31
      32      33      47      48      53      54      25      26      29      30
      34      49      50      55      56      57      58      59      60      61
      62      24      27      28      27      28      31      32      33      35
      36      63      64      65      26      29      30      34      37      55
      56      57      58      59      60      66      29      30      34      37
      55      56      57      58      61      62      66      28      31      32
      33      35      36      38      67      31      32      33      35      36
      39      63      64      65      68      30      34      37      55      56
      59      60      61      62      66      69      70      71      34      37
      57      58      59      60      61      62      66      69      70      71
      32      33      35      36      38      39      67      68      72      33
      35      36      38      39      63      64      65      67      68      73
      36      63      64      65      37      55      56      57      58      59
      60      61      62      66      69      70      71      36      38      39
      67      72      73      38      39      68      72      73      59      60
      61      62      66      69      70      71      39      67      68      72
      73      67      68      72      73      41      42      42       0      44
       0      49      50      48       0       0       0      52      53      54
      53      54      54       0      56      59      60      59      60      58
      61      62      61      62      60      66      66      62      66      66
      64      65      65       0      69      70      71      72      73      70
      71      71       0      73       0
%FLAG HBOND_ACOEF                                                               
%FORMAT(5E16.8)                                                                 

%FLAG HBOND_BCOEF                                                               
%FORMAT(5E16.8)                                                                 

%FLAG HBCUT                                                                     
%FORMAT(5E16.8)                                                                 

%FLAG AMBER_ATOM_TYPE                                                           
%FORMAT(20a4)                                                                   
o   c   ns  ca  c3  nb  ca  ca  ca  ca  ca  ca  ca  c6  ca  ca  c6  n   ca  c6  
c   nh  o   cc  c6  c6  os  cd  c6  c6  ca  ca  c3  nx  ca  ca  c3  ca  ca  hn  
h1  h1  ha  ha  ha  ha  h1  h1  ha  ha  hc  hc  h1  h1  h1  h1  h1  h1  hx  hx  
hx  hx  hc  hc  hc  hn  ha  ha  hx  hx  hx  ha  ha  
%FLAG TREE_CHAIN_CLASSIFICATION                                                 
%FORMAT(20a4)                                                                   
BLA BLA BLA BLA BLA BLA BLA BLA BLA BLA BLA BLA BLA BLA BLA BLA BLA BLA BLA BLA 
BLA BLA BLA BLA BLA BLA BLA BLA BLA BLA BLA BLA BLA BLA BLA BLA BLA BLA BLA BLA 
BLA BLA BLA BLA BLA BLA BLA BLA BLA BLA BLA BLA BLA BLA BLA BLA BLA BLA BLA BLA 
BLA BLA BLA BLA BLA BLA BLA BLA BLA BLA BLA BLA BLA 
%FLAG JOIN_ARRAY                                                                
%FORMAT(10I8)                                                                   
       0       0       0       0       0       0       0       0       0       0
       0       0       0       0       0       0       0       0       0       0
       0       0       0       0       0       0       0       0       0       0
       0       0       0       0       0       0       0       0       0       0
       0       0       0       0       0       0       0       0       0       0
       0       0       0       0       0       0       0       0       0       0
       0       0       0       0       0       0       0       0       0       0
       0       0       0
%FLAG IROTAT                                                                    
%FORMAT(10I8)                                                                   
       0       0       0       0       0       0       0       0       0       0
       0       0       0       0       0       0       0       0       0       0
       0       0       0       0       0       0       0       0       0       0
       0       0       0       0       0       0       0       0       0       0
       0       0       0       0       0       0       0       0       0       0
       0       0       0       0       0       0       0       0       0       0
       0       0       0       0       0       0       0       0       0       0
       0       0       0
%FLAG RADIUS_SET                                                                
%FORMAT(1a80)                                                                   
modified Bondi radii (mbondi)                                                   
%FLAG RADII                                                                     
%FORMAT(5E16.8)                                                                 
  1.50000000E+00  1.70000000E+00  1.55000000E+00  1.70000000E+00  1.70000000E+00
  1.55000000E+00  1.70000000E+00  1.70000000E+00  1.70000000E+00  1.70000000E+00
  1.70000000E+00  1.70000000E+00  1.70000000E+00  1.70000000E+00  1.70000000E+00
  1.70000000E+00  1.70000000E+00  1.55000000E+00  1.70000000E+00  1.70000000E+00
  1.70000000E+00  1.55000000E+00  1.50000000E+00  1.70000000E+00  1.70000000E+00
  1.70000000E+00  1.50000000E+00  1.70000000E+00  1.70000000E+00  1.70000000E+00
  1.70000000E+00  1.70000000E+00  1.70000000E+00  1.55000000E+00  1.70000000E+00
  1.70000000E+00  1.70000000E+00  1.70000000E+00  1.70000000E+00  1.30000000E+00
  1.30000000E+00  1.30000000E+00  1.30000000E+00  1.30000000E+00  1.30000000E+00
  1.30000000E+00  1.30000000E+00  1.30000000E+00  1.30000000E+00  1.30000000E+00
  1.30000000E+00  1.30000000E+00  1.30000000E+00  1.30000000E+00  1.30000000E+00
  1.30000000E+00  1.30000000E+00  1.30000000E+00  1.30000000E+00  1.30000000E+00
  1.30000000E+00  1.30000000E+00  1.30000000E+00  1.30000000E+00  1.30000000E+00
  1.30000000E+00  1.30000000E+00  1.30000000E+00  1.30000000E+00  1.30000000E+00
  1.30000000E+00  1.30000000E+00  1.30000000E+00
%FLAG SCREEN                                                                    
%FORMAT(5E16.8)                                                                 
  8.50000000E-01  7.20000000E-01  7.90000000E-01  7.20000000E-01  7.20000000E-01
  7.90000000E-01  7.20000000E-01  7.20000000E-01  7.20000000E-01  7.20000000E-01
  7.20000000E-01  7.20000000E-01  7.20000000E-01  7.20000000E-01  7.20000000E-01
  7.20000000E-01  7.20000000E-01  7.90000000E-01  7.20000000E-01  7.20000000E-01
  7.20000000E-01  7.90000000E-01  8.50000000E-01  7.20000000E-01  7.20000000E-01
  7.20000000E-01  8.50000000E-01  7.20000000E-01  7.20000000E-01  7.20000000E-01
  7.20000000E-01  7.20000000E-01  7.20000000E-01  7.90000000E-01  7.20000000E-01
  7.20000000E-01  7.20000000E-01  7.20000000E-01  7.20000000E-01  8.50000000E-01
  8.50000000E-01  8.50000000E-01  8.50000000E-01  8.50000000E-01  8.50000000E-01
  8.50000000E-01  8.50000000E-01  8.50000000E-01  8.50000000E-01  8.50000000E-01
  8.50000000E-01  8.50000000E-01  8.50000000E-01  8.50000000E-01  8.50000000E-01
  8.50000000E-01  8.50000000E-01  8.50000000E-01  8.50000000E-01  8.50000000E-01
  8.50000000E-01  8.50000000E-01  8.50000000E-01  8.50000000E-01  8.50000000E-01
  8.50000000E-01  8.50000000E-01  8.50000000E-01  8.50000000E-01  8.50000000E-01
  8.50000000E-01  8.50000000E-01  8.50000000E-01
%FLAG IPOL                                                                      
%FORMAT(1I8)                                                                    
       0
