MOL
    72
  27.8230000   4.5620000 -24.0750000  28.6700000   4.2230000 -22.6260000
  26.8210000   3.2000000 -23.8820000  29.7370000   5.0560000 -22.0990000
  28.1980000   3.0660000 -22.0340000  27.1240000   2.4680000 -22.7620000
  25.6810000   2.8800000 -24.7920000  30.6710000   4.5850000 -21.4530000
  29.6510000   6.4040000 -22.3590000  26.3880000   1.2460000 -22.3350000
  25.1520000   1.4700000 -24.4880000  30.6510000   7.3390000 -21.9000000
  25.1350000   1.1380000 -23.0490000  31.6750000   7.6180000 -22.9680000
  24.0420000   0.4250000 -22.5690000  32.9850000   7.9460000 -22.6220000
  31.3430000   7.4960000 -24.3220000  23.0060000   0.4320000 -23.2470000
  24.0680000  -0.3480000 -21.3040000  33.9310000   8.1840000 -23.6180000
  32.3090000   7.7250000 -25.3160000  24.1790000  -1.7080000 -21.5960000
  23.2930000  -0.3130000 -20.1310000  33.6180000   8.0930000 -24.9830000
  22.9560000  -2.2030000 -21.2700000  22.3440000  -1.3570000 -20.3630000
  23.2900000   0.5790000 -18.9430000  34.6200000   8.3360000 -25.9120000
  22.3760000  -3.3360000 -21.8140000  21.0570000  -1.6880000 -19.9120000
  36.0420000   8.3180000 -25.5310000  34.3960000   7.7410000 -27.2470000
  23.0160000  -4.1030000 -22.7490000  21.0540000  -3.5820000 -21.4700000
  20.4020000  -2.7670000 -20.5320000  36.8590000   9.0820000 -26.6080000
  35.2180000   8.5190000 -28.2950000  36.6660000   8.5420000 -27.9760000
  37.3830000   9.3510000 -28.9600000  28.1700000   4.0950000 -21.9600000
  25.9170000   2.0810000 -24.1200000  25.7040000   2.5210000 -25.7990000
  29.4540000   5.4400000 -22.3910000  26.3160000   2.0910000 -22.9870000
  26.1320000   1.5300000 -21.3360000  25.0190000   1.4610000 -23.4270000
  24.4540000   0.8340000 -24.9920000  31.1540000   6.9110000 -21.0580000
  30.6680000   8.4080000 -21.8500000  32.1530000   8.5530000 -22.6850000
  31.7000000   7.1840000 -23.4050000  33.5740000   8.5060000 -24.5310000
  33.1640000   7.1500000 -25.2510000  23.7720000   0.4170000 -18.0020000
  22.8440000   1.5520000 -18.9530000  24.0120000   0.5100000 -19.7300000
  21.7880000  -1.0320000 -20.2290000  36.1570000   7.2990000 -25.2260000
  36.6090000   8.9450000 -24.8740000  33.3770000   8.0640000 -27.1930000
  34.4530000   6.7070000 -26.9760000  22.9630000  -4.3300000 -21.8420000
  20.3340000  -3.8970000 -22.1390000  20.4610000  -2.5210000 -21.5330000
  37.8750000   8.7500000 -26.6560000  36.7630000  10.1170000 -26.8620000
  35.0980000   9.5460000 -28.5720000  34.6570000   7.8710000 -28.9340000
  36.7840000   7.5460000 -27.7900000  37.2680000  10.3920000 -29.1790000
  36.8040000   8.7750000 -29.6510000  38.4140000   9.0800000 -29.0460000
