MOL
    73
  30.6980000   5.4390000 -21.3260000  29.9280000   5.8500000 -22.1970000
  30.0320000   7.1090000 -22.7560000  28.8490000   4.9660000 -22.7460000
  31.0700000   8.0330000 -22.3700000  28.5450000   3.8020000 -22.1010000
  28.1920000   5.4200000 -23.8890000  32.1170000   8.1300000 -23.4440000
  27.5510000   3.0350000 -22.6400000  27.1750000   4.6360000 -24.4070000
  33.3620000   8.6940000 -23.1580000  31.8590000   7.6980000 -24.7470000
  26.8510000   3.4230000 -23.7940000  27.2290000   1.6970000 -21.9670000
  34.3260000   8.8190000 -24.1610000  32.8360000   7.8240000 -25.7430000
  25.6990000   2.6180000 -24.3380000  25.9240000   1.1560000 -22.3600000
  34.0880000   8.3920000 -25.4750000  25.6340000   1.1960000 -23.7860000
  25.1790000   0.3700000 -21.4670000  35.0930000   8.4800000 -26.4190000
  25.7210000  -0.1770000 -20.5040000  23.7170000   0.4620000 -21.6020000
  34.8080000   8.7680000 -27.8290000  36.4510000   8.8750000 -26.0040000
  23.2090000   1.7020000 -21.2570000  22.6960000  -0.4560000 -21.3210000
  35.8610000   8.0470000 -28.7030000  37.4870000   8.1760000 -26.9160000
  22.3620000   1.4470000 -20.2320000  22.1040000   0.0900000 -20.1500000
  22.2550000  -1.6940000 -22.0070000  37.2520000   8.4280000 -28.3590000
  21.8810000   2.3940000 -19.3630000  21.3380000  -0.3900000 -19.0750000
  38.2010000   7.6700000 -29.1710000  21.1580000   1.9070000 -18.2680000
  20.9120000   0.5380000 -18.1130000  30.5020000   6.2960000 -22.4620000
  30.2840000   7.4460000 -21.9440000  30.6670000   8.8980000 -22.8540000
  27.4830000   6.0890000 -24.2280000  26.9200000   4.6290000 -25.4070000
  33.2410000   9.2750000 -24.0020000  31.3300000   6.8190000 -24.6270000
  26.8930000   1.2980000 -21.0330000  28.1270000   2.2690000 -21.8590000
  34.8540000   9.6970000 -24.2850000  32.9500000   7.2460000 -24.8960000
  25.9750000   3.1310000 -25.2350000  24.9670000   1.8580000 -24.5120000
  26.4710000   1.8560000 -23.8790000  25.7910000   0.2950000 -24.3430000
  35.4090000   7.9060000 -27.6280000  33.7840000   8.5320000 -27.6260000
  36.4810000   9.2060000 -27.0200000  37.1050000   8.0360000 -25.8850000
  35.7940000   7.7430000 -27.6790000  35.2230000   8.8800000 -28.9140000
  36.8890000   9.0400000 -27.1220000  38.5240000   8.3540000 -27.1100000
  23.1830000  -1.1930000 -22.1880000  22.1220000  -2.4710000 -22.7310000
  22.2660000  -2.1200000 -21.0250000  37.8910000   7.6660000 -28.1330000
  21.4380000   3.0740000 -20.0010000  21.8010000  -1.1270000 -18.5210000
  37.5420000   8.4840000 -29.3920000  39.2100000   7.9610000 -29.3760000
  38.1090000   7.4070000 -28.1370000  20.1300000   1.8970000 -18.3630000
  20.3330000  -0.1310000 -17.5810000
