MOL
    68
  21.2220000  -3.8630000 -19.3280000  21.9290000  -2.5540000 -20.2130000
  22.0930000  -2.5660000 -21.5440000  22.3110000  -1.3850000 -19.4400000
  22.6640000  -1.4710000 -22.1410000  22.9060000  -0.3400000 -20.0250000
  22.9150000  -1.2840000 -23.4620000  23.0980000  -0.3570000 -21.4110000
  23.5530000  -0.1070000 -23.5120000  23.7720000   0.5060000 -22.2150000
  24.5780000   1.7220000 -21.9170000  24.6300000   1.8340000 -20.6720000
  25.7050000   2.4130000 -22.8380000  26.3510000   3.7620000 -23.8990000
  26.5710000   2.3910000 -21.7420000  27.8500000   4.7850000 -23.5660000
  27.8480000   2.7950000 -22.1890000  28.5260000   3.8740000 -22.7680000
  29.1510000   5.6560000 -23.2460000  30.0080000   3.8250000 -22.0090000
  29.8720000   5.5020000 -22.0030000  30.7700000   6.0790000 -20.9970000
  31.0210000   5.6140000 -19.8870000  31.2110000   7.3720000 -21.3190000
  30.8740000   8.0200000 -22.5740000  31.9830000   7.9970000 -23.5470000
  33.2880000   8.1620000 -23.0950000  31.7040000   7.7810000 -24.8890000
  34.3060000   8.2500000 -24.0200000  32.7440000   7.7910000 -25.7910000
  34.0490000   8.1030000 -25.3920000  35.0220000   8.3520000 -26.3250000
  34.6910000   8.4900000 -27.7420000  36.3440000   8.8690000 -25.9460000
  35.7990000   7.8310000 -28.5740000  37.4210000   8.2490000 -26.8520000
  37.1090000   8.4530000 -28.2830000  38.1460000   7.8910000 -29.1280000
  21.5390000  -1.8170000 -21.1000000  21.8660000  -2.2860000 -19.6760000
  23.4580000  -1.0800000 -20.4860000  24.3750000   0.5080000 -23.4060000
  25.9850000   4.0380000 -24.8660000  25.8520000   3.0530000 -23.2710000
  26.5430000   2.8880000 -20.7950000  27.0580000   3.0330000 -22.4460000
  27.2740000   2.3090000 -21.4280000  28.7900000   3.2870000 -22.3150000
  29.1430000   4.7700000 -23.7750000  32.1870000   7.5030000 -21.3300000
  30.6890000   8.2610000 -21.5490000  29.9720000   7.7770000 -23.0950000
  32.7300000   7.4880000 -23.6430000  31.7410000   7.6930000 -23.8610000
  34.2740000   8.3270000 -25.0490000  33.1520000   8.5510000 -25.2250000
  34.1810000   9.4260000 -27.6460000  34.0530000   7.7960000 -28.2470000
  36.6260000   8.3570000 -25.0490000  35.8950000   9.8080000 -25.6970000
  35.5580000   8.2300000 -29.5370000  36.2890000   6.8860000 -28.6770000
  37.9250000   7.3180000 -27.0080000  38.0540000   8.9420000 -26.3390000
  36.6400000   9.3480000 -28.1430000  38.6670000   6.9710000 -29.2960000
  38.7850000   8.5720000 -28.6060000  37.8620000   8.3170000 -30.0670000
