%VERSION  VERSION_STAMP = V0001.000  DATE = 09/01/26  08:22:52                  
%FLAG TITLE                                                                     
%FORMAT(20a4)                                                                   
MOL                                                                             
%FLAG POINTERS                                                                  
%FORMAT(10I8)                                                                   
      58      12      22      40      48      59      87      94       0       0
     313       1      40      59      94      24      47      29      16       0
       0       0       0       0       0       0       0       0      58       0
       0
%FLAG ATOM_NAME                                                                 
%FORMAT(20a4)                                                                   
F1  C1  F2  F3  C2  C3  C4  C5  C6  C7  C8  N1  C9  O1  C10 N2  C11 C12 C13 C14 
C15 C16 N3  C17 C18 O2  C19 O3  C20 C21 C22 C23 C24 C25 C26 C27 H1  H2  H3  H4  
H5  H6  H7  H8  H9  H10 H11 H12 H13 H14 H15 H16 H17 H18 H19 H20 H21 H22 
%FLAG CHARGE                                                                    
%FORMAT(5E16.8)                                                                 
 -4.33021982E+00  1.25223646E+01 -4.33021982E+00 -4.33021982E+00 -2.99392389E+00
 -1.53067320E+00 -1.53067320E+00 -2.21400945E+00 -2.21400945E+00 -1.70014059E+00
  2.28325419E+00 -9.81999747E+00  1.03429775E+01 -1.11903144E+01  6.48349434E+00
 -1.19173842E+01 -3.35836989E+00  7.04474118E+00 -1.91334150E+00 -2.92650138E+00
  5.22980010E-01 -1.18627173E+00 -8.10527904E+00  1.53067320E+00  1.27975213E+01
 -1.05525339E+01 -9.49381830E-01 -3.68454906E+00 -4.62846420E-01  1.35027243E+00
 -2.20125384E+00 -9.45737370E-01 -2.35067670E+00 -1.25733870E+00 -1.82223000E+00
 -2.75156730E+00  2.76978960E+00  2.76978960E+00  2.78801190E+00  2.78801190E+00
  1.33387236E+00  1.33387236E+00  6.00424785E+00  3.15245790E+00  2.66045580E+00
  1.66187376E+00  1.66187376E+00  1.28831661E+00  1.28831661E+00  1.22453856E+00
  1.22453856E+00  1.12431591E+00  1.12431591E+00  1.12431591E+00  2.75156730E+00
  2.60578890E+00  2.53289970E+00  2.51467740E+00
%FLAG ATOMIC_NUMBER                                                             
%FORMAT(10I8)                                                                   
       9       6       9       9       6       6       6       6       6       6
       6       7       6       8       6       7       6       6       6       6
       6       6       7       6       6       8       6       8       6       6
       6       6       6       6       6       6       1       1       1       1
       1       1       1       1       1       1       1       1       1       1
       1       1       1       1       1       1       1       1
%FLAG MASS                                                                      
%FORMAT(5E16.8)                                                                 
  1.90000000E+01  1.20100000E+01  1.90000000E+01  1.90000000E+01  1.20100000E+01
  1.20100000E+01  1.20100000E+01  1.20100000E+01  1.20100000E+01  1.20100000E+01
  1.20100000E+01  1.40100000E+01  1.20100000E+01  1.60000000E+01  1.20100000E+01
  1.40100000E+01  1.20100000E+01  1.20100000E+01  1.20100000E+01  1.20100000E+01
  1.20100000E+01  1.20100000E+01  1.40100000E+01  1.20100000E+01  1.20100000E+01
  1.60000000E+01  1.20100000E+01  1.60000000E+01  1.20100000E+01  1.20100000E+01
  1.20100000E+01  1.20100000E+01  1.20100000E+01  1.20100000E+01  1.20100000E+01
  1.20100000E+01  1.00800000E+00  1.00800000E+00  1.00800000E+00  1.00800000E+00
  1.00800000E+00  1.00800000E+00  1.00800000E+00  1.00800000E+00  1.00800000E+00
  1.00800000E+00  1.00800000E+00  1.00800000E+00  1.00800000E+00  1.00800000E+00
  1.00800000E+00  1.00800000E+00  1.00800000E+00  1.00800000E+00  1.00800000E+00
  1.00800000E+00  1.00800000E+00  1.00800000E+00
%FLAG ATOM_TYPE_INDEX                                                           
%FORMAT(10I8)                                                                   
       1       2       1       1       3       3       3       3       3       3
       2       4       3       5       3       6       3       3       3       3
       2       2       7       2       3       5       3       8       3       3
       3       2       3       3       3       3       9       9       9       9
      10      10      11       9       9      10      10      12      12      10
      10      12      12      12       9       9       9       9
%FLAG NUMBER_EXCLUDED_ATOMS                                                     
%FORMAT(10I8)                                                                   
       6       9       4       3       9       8       7       9       8      10
       9       8      10       4       9      10       6      12       8      12
      10       8      12       9      11       3      10       8      10       9
      11       4       6       5       5       4       1       1       1       1
       2       1       1       1       1       1       1       3       2       1
       1       2       1       1       1       1       1       1
%FLAG NONBONDED_PARM_INDEX                                                      
%FORMAT(10I8)                                                                   
       1       2       4       7      11      16      22      29      37      46
      56      67       2       3       5       8      12      17      23      30
      38      47      57      68       4       5       6       9      13      18
      24      31      39      48      58      69       7       8       9      10
      14      19      25      32      40      49      59      70      11      12
      13      14      15      20      26      33      41      50      60      71
      16      17      18      19      20      21      27      34      42      51
      61      72      22      23      24      25      26      27      28      35
      43      52      62      73      29      30      31      32      33      34
      35      36      44      53      63      74      37      38      39      40
      41      42      43      44      45      54      64      75      46      47
      48      49      50      51      52      53      54      55      65      76
      56      57      58      59      60      61      62      63      64      65
      66      77      67      68      69      70      71      72      73      74
      75      76      77      78
%FLAG RESIDUE_LABEL                                                             
%FORMAT(20a4)                                                                   
MOL 
%FLAG RESIDUE_POINTER                                                           
%FORMAT(10I8)                                                                   
       1
%FLAG BOND_FORCE_CONSTANT                                                       
%FORMAT(5E16.8)                                                                 
  3.34280000E+02  2.43910000E+02  3.54250000E+02  3.60690000E+02  2.61660000E+02
  3.44220000E+02  3.36070000E+02  4.73590000E+02  5.90600000E+02  2.62840000E+02
  3.86490000E+02  2.39730000E+02  2.52360000E+02  3.42020000E+02  2.26810000E+02
  3.42750000E+02  3.17460000E+02  2.81780000E+02  3.51190000E+02  3.86240000E+02
  3.43340000E+02  2.88790000E+02  2.53870000E+02  3.45250000E+02
%FLAG BOND_EQUIL_VALUE                                                          
%FORMAT(5E16.8)                                                                 
  1.35120000E+00  1.51470000E+00  1.39860000E+00  1.08600000E+00  1.45560000E+00
  1.09690000E+00  1.37980000E+00  1.01320000E+00  1.21900000E+00  1.49070000E+00
  1.33920000E+00  1.52030000E+00  1.46690000E+00  1.09840000E+00  1.53840000E+00
  1.09790000E+00  1.39670000E+00  1.46870000E+00  1.36220000E+00  1.37300000E+00
  1.36880000E+00  1.46100000E+00  1.50180000E+00  1.09620000E+00
%FLAG ANGLE_FORCE_CONSTANT                                                      
%FORMAT(5E16.8)                                                                 
  1.06880000E+02  7.92400000E+01  6.07400000E+01  6.36700000E+01  4.49000000E+01
  6.58400000E+01  4.38100000E+01  7.69000000E+01  5.46200000E+01  4.83900000E+01
  8.72100000E+01  6.70600000E+01  5.73700000E+01  6.70900000E+01  6.14400000E+01
  7.79600000E+01  8.31500000E+01  6.81700000E+01  6.68100000E+01  6.06600000E+01
  6.55100000E+01  4.38000000E+01  6.02800000E+01  4.36900000E+01  7.66300000E+01
  7.69600000E+01  6.52900000E+01  4.32800000E+01  4.80600000E+01  8.66800000E+01
  6.80100000E+01  4.32300000E+01  7.70000000E+01  6.22000000E+01  7.83600000E+01
  9.56300000E+01  6.16400000E+01  6.00600000E+01  8.26200000E+01  7.90000000E+01
  6.20200000E+01  4.39500000E+01  5.86200000E+01  3.56400000E+01  3.57700000E+01
  3.59300000E+01  3.58000000E+01
%FLAG ANGLE_EQUIL_VALUE                                                         
%FORMAT(5E16.8)                                                                 
  1.87396082E+00  1.95092987E+00  2.10888224E+00  2.09474507E+00  2.09230160E+00
  1.95511867E+00  1.91288168E+00  2.12860447E+00  2.04936649E+00  1.89350852E+00
  2.14762857E+00  2.00870030E+00  2.04657396E+00  2.05390434E+00  2.10015559E+00
  2.13977458E+00  2.04622489E+00  2.14570870E+00  2.01917228E+00  2.10486798E+00
  1.95284974E+00  1.90118797E+00  1.95424600E+00  1.91061275E+00  2.10259905E+00
  1.99089793E+00  1.94028336E+00  1.90555129E+00  1.89403212E+00  2.13925098E+00
  1.96681238E+00  1.91026369E+00  2.08025883E+00  2.11743436E+00  2.16525640E+00
  1.84830447E+00  2.16927066E+00  2.21098404E+00  1.94656655E+00  2.07886256E+00
  2.10888224E+00  1.93068405E+00  2.20138473E+00  1.89455572E+00  1.87622975E+00
  1.86087085E+00  1.88024401E+00
%FLAG DIHEDRAL_FORCE_CONSTANT                                                   
%FORMAT(5E16.8)                                                                 
  0.00000000E+00  3.62500000E+00  2.50000000E+00  3.00000000E+00  2.00000000E+00
  5.00000000E-01  1.00000000E+00  2.12250000E+00  0.00000000E+00  4.80000000E+00
  2.00000000E+00  5.80000000E-01  2.40000000E-01  2.10000000E-01  1.55555556E-01
  1.02000000E+00  1.70000000E-01  1.00000000E-01  2.87500000E+00  0.00000000E+00
  2.64000000E+00  4.00000000E+00  1.82500000E+00  3.77000000E+00  0.00000000E+00
  6.50000000E-01  6.00000000E-01  1.10000000E+00  1.05000000E+01
%FLAG DIHEDRAL_PERIODICITY                                                      
%FORMAT(5E16.8)                                                                 
  2.00000000E+00  2.00000000E+00  2.00000000E+00  1.00000000E+00  2.00000000E+00
  3.00000000E+00  2.00000000E+00  2.00000000E+00  1.00000000E+00  2.00000000E+00
  1.00000000E+00  2.00000000E+00  2.00000000E+00  3.00000000E+00  3.00000000E+00
  1.00000000E+00  3.00000000E+00  4.00000000E+00  2.00000000E+00  2.00000000E+00
  2.00000000E+00  2.00000000E+00  2.00000000E+00  2.00000000E+00  3.00000000E+00
  1.00000000E+00  2.00000000E+00  2.00000000E+00  2.00000000E+00
%FLAG DIHEDRAL_PHASE                                                            
%FORMAT(5E16.8)                                                                 
  0.00000000E+00  3.14159400E+00  3.14159400E+00  3.14159400E+00  3.14159400E+00
  0.00000000E+00  3.14159400E+00  3.14159400E+00  0.00000000E+00  3.14159400E+00
  0.00000000E+00  3.14159400E+00  3.14159400E+00  0.00000000E+00  0.00000000E+00
  3.14159400E+00  0.00000000E+00  3.14159400E+00  3.14159400E+00  3.14159400E+00
  3.14159400E+00  3.14159400E+00  3.14159400E+00  3.14159400E+00  0.00000000E+00
  3.14159400E+00  3.14159400E+00  3.14159400E+00  3.14159400E+00
%FLAG SCEE_SCALE_FACTOR                                                         
%FORMAT(5E16.8)                                                                 
  1.20000000E+00  1.20000000E+00  1.20000000E+00  1.20000000E+00  1.20000000E+00
  1.20000000E+00  1.20000000E+00  1.20000000E+00  1.20000000E+00  1.20000000E+00
  1.20000000E+00  1.20000000E+00  1.20000000E+00  1.20000000E+00  1.20000000E+00
  1.20000000E+00  1.20000000E+00  1.20000000E+00  1.20000000E+00  1.20000000E+00
  1.20000000E+00  1.20000000E+00  1.20000000E+00  1.20000000E+00  1.20000000E+00
  1.20000000E+00  1.20000000E+00  0.00000000E+00  0.00000000E+00
%FLAG SCNB_SCALE_FACTOR                                                         
%FORMAT(5E16.8)                                                                 
  2.00000000E+00  2.00000000E+00  2.00000000E+00  2.00000000E+00  2.00000000E+00
  2.00000000E+00  2.00000000E+00  2.00000000E+00  2.00000000E+00  2.00000000E+00
  2.00000000E+00  2.00000000E+00  2.00000000E+00  2.00000000E+00  2.00000000E+00
  2.00000000E+00  2.00000000E+00  2.00000000E+00  2.00000000E+00  2.00000000E+00
  2.00000000E+00  2.00000000E+00  2.00000000E+00  2.00000000E+00  2.00000000E+00
  2.00000000E+00  2.00000000E+00  0.00000000E+00  0.00000000E+00
%FLAG SOLTY                                                                     
%FORMAT(5E16.8)                                                                 
  0.00000000E+00  0.00000000E+00  0.00000000E+00  0.00000000E+00  0.00000000E+00
  0.00000000E+00  0.00000000E+00  0.00000000E+00  0.00000000E+00  0.00000000E+00
  0.00000000E+00  0.00000000E+00  0.00000000E+00  0.00000000E+00  0.00000000E+00
  0.00000000E+00
%FLAG LENNARD_JONES_ACOEF                                                       
%FORMAT(5E16.8)                                                                 
  2.02652992E+05  4.63627012E+05  1.02073671E+06  3.80155513E+05  8.43969952E+05
  6.96551276E+05  3.80309307E+05  8.48258258E+05  6.99381362E+05  7.01825028E+05
  2.76207447E+05  6.30925504E+05  5.17507491E+05  5.17814271E+05  3.76435470E+05
  4.22347898E+05  9.31115275E+05  7.69642101E+05  7.73425391E+05  5.74782316E+05
  8.49322032E+05  3.78460396E+05  8.52084164E+05  7.01106848E+05  7.02755693E+05
  5.15491878E+05  7.76656876E+05  7.02078680E+05  2.40318810E+05  5.42502534E+05
  4.46121722E+05  4.47026838E+05  3.27367585E+05  4.94433451E+05  4.46307018E+05
  2.83662575E+05  3.86097375E+04  9.27554496E+04  7.52549148E+04  7.48403283E+04
  5.27277400E+04  8.43518904E+04  7.35931098E+04  4.65732396E+04  6.90855956E+03
  2.82810778E+04  6.97998263E+04  5.63013422E+04  5.58085097E+04  3.86646725E+04
  6.34160397E+04  5.45183252E+04  3.44374471E+04  4.88692384E+03  3.39005767E+03
  7.15600927E+02  2.23577481E+03  1.71458823E+03  1.65195713E+03  9.87857350E+02
  2.01475241E+03  1.52360475E+03  9.46795083E+02  9.04434904E+01  5.24570081E+01
  1.34728399E-01  4.15877422E+04  1.00235148E+05  8.12662403E+04  8.07866982E+04
  5.68021765E+04  9.11435380E+04  7.93773615E+04  5.02224902E+04  7.41026906E+03
  5.22955465E+03  9.47421632E+01  7.94617769E+03
%FLAG LENNARD_JONES_BCOEF                                                       
%FORMAT(5E16.8)                                                                 
  2.59697739E+02  4.19082844E+02  6.63431737E+02  3.71304925E+02  5.90251928E+02
  5.24668528E+02  3.87745109E+02  6.17825399E+02  5.48900066E+02  5.74088001E+02
  3.49131956E+02  5.62969425E+02  4.98871431E+02  5.21008860E+02  4.69350655E+02
  3.86628088E+02  6.12468585E+02  5.44830041E+02  5.70234696E+02  5.19385932E+02
  5.65406768E+02  4.20258854E+02  6.72777963E+02  5.97113873E+02  6.24158704E+02
  5.64804067E+02  6.20851625E+02  6.77820248E+02  2.73330984E+02  4.38146883E+02
  3.88758656E+02  4.06301077E+02  3.67361018E+02  4.04310927E+02  4.41089616E+02
  2.87011518E+02  7.51823196E+01  1.24325688E+02  1.09570372E+02  1.14083104E+02
  1.01173582E+02  1.14599119E+02  1.22913863E+02  7.98066064E+01  2.10929191E+01
  6.86000827E+01  1.14981426E+02  1.01040256E+02  1.05029928E+02  9.23664132E+01
  1.05935811E+02  1.12788003E+02  7.31636661E+01  1.89134207E+01  1.67944276E+01
  9.08649254E+00  1.71355763E+01  1.46824710E+01  1.50468782E+01  1.22938581E+01
  1.57231024E+01  1.57004457E+01  1.01016461E+01  2.14252117E+00  1.73959275E+00
  7.34107347E-02  8.31877412E+01  1.37787728E+02  1.21392023E+02  1.26366740E+02
  1.11953944E+02  1.27000718E+02  1.36094315E+02  8.83545880E+01  2.32899892E+01
  2.08590256E+01  2.33785449E+00  2.57122925E+01
%FLAG BONDS_INC_HYDROGEN                                                        
%FORMAT(10I8)                                                                   
      15     108       4      18     111       4      21     114       4      24
     117       4      30     120       6      30     123       6      33     126
       8      48     129       4      54     132       4      60     135      14
      60     138      14      63     141      16      63     144      16      69
     147      14      69     150      14      93     153      24      93     156
      24      93     159      24      96     162       4      99     165       4
     102     168       4     105     171       4
%FLAG BONDS_WITHOUT_HYDROGEN                                                    
%FORMAT(10I8)                                                                   
       0       3       1       3       6       1       3       9       1       3
      12       2      12      15       3      12      18       3      15      21
       3      18      24       3      21      27       3      24      27       3
      27      30       2      30      33       5      33      36       7      36
      39       9      36      42      10      42      45      11      42      48
       3      45      51      11      48      54       3      51      57       3
      51      60      12      54      57       3      57      63      12      60
      66      13      63      69      15      66      72      17      66      69
      13      72      75       9      72      78      18      78      81      19
      78      84      20      81      87      21      84      90      22      84
      93      23      87      96       3      87      90       3      90      99
       3      96     102       3      99     105       3     102     105       3
%FLAG ANGLES_INC_HYDROGEN                                                       
%FORMAT(10I8)                                                                   
      12      15     108       5      12      18     111       5      15      21
     114       5      18      24     117       5      21      15     108       5
      24      18     111       5      27      21     114       5      27      24
     117       5      27      30     120       7      27      30     123       7
      30      33     126       9      33      30     120      10      33      30
     123      10      36      33     126      13      42      48     129       5
      48      54     132       5      51      60     135      22      51      60
     138      22      54      48     129       5      57      54     132       5
      57      63     141      24      57      63     144      24      63      69
     147      28      63      69     150      28      66      60     135      29
      66      60     138      29      66      69     147      29      66      69
     150      29      69      63     141      32      69      63     144      32
      84      93     153      42      84      93     156      42      84      93
     159      42      87      96     162       5      90      99     165       5
      96     102     168       5      99     105     171       5     102      96
     162       5     102     105     171       5     105      99     165       5
     105     102     168       5     120      30     123      44     135      60
     138      45     141      63     144      46     147      69     150      45
     153      93     156      47     153      93     159      47     156      93
     159      47
%FLAG ANGLES_WITHOUT_HYDROGEN                                                   
%FORMAT(10I8)                                                                   
       0       3       6       1       0       3       9       1       0       3
      12       2       3      12      15       3       3      12      18       3
       6       3       9       1       6       3      12       2       9       3
      12       2      12      15      21       4      12      18      24       4
      15      12      18       4      15      21      27       4      18      24
      27       4      21      27      24       4      21      27      30       3
      24      27      30       3      27      30      33       6      30      33
      36       8      33      36      39      11      33      36      42      12
      36      42      45      14      36      42      48      15      39      36
      42      16      42      45      51      17      42      48      54       4
      45      42      48      18      45      51      57      18      45      51
      60      19      48      54      57       4      51      57      54       4
      51      57      63      20      51      60      66      21      54      57
      63      20      57      51      60      20      57      63      69      23
      60      66      72      25      60      66      69      26      63      69
      66      27      66      72      75      30      66      72      78      31
      69      66      72      25      72      78      81      33      72      78
      84      34      75      72      78      35      78      81      87      36
      78      84      90      37      78      84      93      38      81      78
      84      39      81      87      96      40      81      87      90      40
      84      90      87      41      84      90      99      41      87      96
     102       4      87      90      99       4      90      84      93      43
      90      87      96       4      90      99     105       4      96     102
     105       4      99     105     102       4
%FLAG DIHEDRALS_INC_HYDROGEN                                                    
%FORMAT(10I8)                                                                   
       3      12      15     108       2       3      12      18     111       2
      12      15      21     114       2      12      18      24     117       2
      15      12      18     111       2      18      12      15     108       2
      21      27      24     117       2      21      27      30     120       1
      21      27      30     123       1      24      27      21     114       2
      24      27      30     120       1      24      27      30     123       1
      27      21      15     108       2      27      24      18     111       2
      27      30      33     126       1      30      27      21     114       2
      30      27      24     117       2      36      33      30     120       9
      36      33      30     123       9      36      42      48     129       2
      39      36      33     126      11      39      36     -33     126       3
      42      36      33     126       3      42      48      54     132       2
      45      42      48     129       2      45      51      60     135       1
      45      51      60     138       1      51      57      54     132       2
      51      57      63     141       9      51      57      63     144       9
      54      57      63     141       9      54      57      63     144       9
      57      51      60     135       1      57      51      60     138       1
      57      54      48     129       2      57      63      69     147      15
      57      63      69     150      15      60      66      69     147       1
      60      66      69     150       1      63      57      54     132       2
      66      69      63     141      15      66      69      63     144      15
      69      66      60     135       1      69      66      60     138       1
      72      66      60     135      20      72      66      60     138      20
      72      66      69     147      20      72      66      69     150      20
      78      84      93     153      25      78      84      93     156      25
      78      84      93     159      25      81      87      96     162       2
      84      90      99     165       2      87      96     102     168       2
      87      90      99     165       2      90      84      93     153      25
      90      84      93     156      25      90      84      93     159      25
      90      87      96     162       2      90      99     105     171       2
      96     102     105     171       2      99     105     102     168       2
     102     105      99     165       2     105     102      96     162       2
     108      15      21     114       2     111      18      24     117       2
     120      30      33     126       1     123      30      33     126       1
     129      48      54     132       2     141      63      69     147      15
     141      63      69     150      15     144      63      69     147      15
     144      63      69     150      15     162      96     102     168       2
     165      99     105     171       2     168     102     105     171       2
      12      21     -15    -108      28      12      24     -18    -111      28
      15      27     -21    -114      28      18      27     -24    -117      28
      36      30     -33    -126      28      42      54     -48    -129      28
      48      57     -54    -132      28      87     102     -96    -162      28
      90     105     -99    -165      28      96     105    -102    -168      28
      99     102    -105    -171      28
%FLAG DIHEDRALS_WITHOUT_HYDROGEN                                                
%FORMAT(10I8)                                                                   
       0       3      12      15       1       0       3      12      18       1
       3      12      15      21       2       3      12      18      24       2
       6       3      12      15       1       6       3      12      18       1
       9       3      12      15       1       9       3      12      18       1
      12      15      21      27       2      12      18     -24      27       2
      15      12      18      24       2      15      21     -27      24       2
      15      21      27      30       2      18      12      15      21       2
      18      24     -27      21       2      18      24      27      30       2
      21      27      30      33       1      24      27      30      33       1
      27      30      33      36       1      30      33      36      39       3
      30      33      36      42       4      30      33     -36      42       5
      30      33     -36      42       6      33      36      42      45       7
      33      36      42      48       8      36      42      45      51      10
      36      42      48      54       2      39      36      42      45       7
      39      36      42      48      12      42      45      51      57      10
      42      45      51      60      10      42      48     -54      57       2
      45      42      48      54       2      45      51     -57      54       2
      45      51      57      63       2      45      51      60      66       1
      48      42      45      51      10      48      54     -57      51       2
      48      54      57      63       2      51      57      63      69      13
      51      60      66      72       1      51      60     -66      69       1
      54      57      51      60       2      54      57      63      69      13
      57      51      60      66       1      57      63     -69      66      14
      60      51      57      63       2      60      66      72      75       3
      60      66      72      78       3      60      66     -69      63       1
      63      69      66      72      16      63      69     -66      72      17
      63      69     -66      72      18      66      72      78      81      19
      66      72      78      84      19      69      66      72      75       3
      69      66      72      78       3      72      78      81      87      21
      72      78      84      90      22      72      78      84      93      22
      75      72      78      81      19      75      72      78      84      19
      78      81      87      96      23      78      81     -87      90      23
      78      84     -90      87      24      78      84      90      99      24
      81      78     -84      90      22      81      78      84      93      22
      81      87      96     102       2      81      87     -90      84       2
      81      87      90      99       2      84      78     -81      87      26
      84      90      87      96       2      84      90      99     105       2
      87      96     102     105       2      87      90      84      93      27
      87      90     -99     105       2      90      87      96     102       2
      90      99    -105     102       2      93      84      90      99      27
      96      87      90      99       2      96     102    -105      99       2
      15      18     -12      -3      28      30      21     -27     -24      28
      42      33     -36     -39      29      36      48     -42     -45      29
      60      57     -51     -45      29      63      51     -57     -54      29
      72      60     -66     -69      28      78      66     -72     -75      29
      72      84     -78     -81      29      93      90     -84     -78      29
      90      96     -87     -81      29      87      99     -90     -84      28
%FLAG EXCLUDED_ATOMS_LIST                                                       
%FORMAT(10I8)                                                                   
       2       3       4       5       6       7       3       4       5       6
       7       8       9      37      38       4       5       6       7       5
       6       7       6       7       8       9      10      37      38      39
      40       7       8       9      10      11      37      38      39       8
       9      10      11      37      38      40       9      10      11      12
      37      39      40      41      42      10      11      12      38      39
      40      41      42      11      12      13      37      38      39      40
      41      42      43      12      13      14      15      39      40      41
      42      43      13      14      15      16      17      41      42      43
      14      15      16      17      18      19      41      42      43      44
      15      16      17      43      16      17      18      19      20      21
      43      44      45      17      18      19      20      21      22      23
      44      46      47      18      19      20      22      44      45      19
      20      21      22      23      24      25      45      46      47      48
      49      20      21      22      24      44      45      48      49      21
      22      23      24      44      45      46      47      48      49      50
      51      22      23      24      25      26      27      46      47      50
      51      23      24      25      45      48      49      50      51      24
      25      26      27      28      29      46      47      48      49      50
      51      25      26      27      46      47      48      49      50      51
      26      27      28      29      30      31      32      46      47      50
      51      27      28      29      28      29      30      31      32      33
      34      52      53      54      29      30      31      32      33      34
      35      55      30      31      32      33      34      36      52      53
      54      56      31      32      33      34      35      36      55      56
      57      32      33      34      35      36      52      53      54      55
      56      58      34      52      53      54      34      35      36      55
      57      58      35      36      56      57      58      36      55      56
      57      58      55      56      57      58      39      40       0       0
      42      43      43       0      45       0      47       0      49      50
      51      50      51      51       0      53      54      54       0      57
      58      58       0
%FLAG HBOND_ACOEF                                                               
%FORMAT(5E16.8)                                                                 

%FLAG HBOND_BCOEF                                                               
%FORMAT(5E16.8)                                                                 

%FLAG HBCUT                                                                     
%FORMAT(5E16.8)                                                                 

%FLAG AMBER_ATOM_TYPE                                                           
%FORMAT(20a4)                                                                   
f   c3  f   f   ca  ca  ca  ca  ca  ca  c3  ns  c   o   ca  nb  ca  ca  ca  ca  
c6  c6  n   c6  c   o   cc  os  cd  ca  ca  c3  ca  ca  ca  ca  ha  ha  ha  ha  
h1  h1  hn  ha  ha  h1  h1  hc  hc  h1  h1  hc  hc  hc  ha  ha  ha  ha  
%FLAG TREE_CHAIN_CLASSIFICATION                                                 
%FORMAT(20a4)                                                                   
BLA BLA BLA BLA BLA BLA BLA BLA BLA BLA BLA BLA BLA BLA BLA BLA BLA BLA BLA BLA 
BLA BLA BLA BLA BLA BLA BLA BLA BLA BLA BLA BLA BLA BLA BLA BLA BLA BLA BLA BLA 
BLA BLA BLA BLA BLA BLA BLA BLA BLA BLA BLA BLA BLA BLA BLA BLA BLA BLA 
%FLAG JOIN_ARRAY                                                                
%FORMAT(10I8)                                                                   
       0       0       0       0       0       0       0       0       0       0
       0       0       0       0       0       0       0       0       0       0
       0       0       0       0       0       0       0       0       0       0
       0       0       0       0       0       0       0       0       0       0
       0       0       0       0       0       0       0       0       0       0
       0       0       0       0       0       0       0       0
%FLAG IROTAT                                                                    
%FORMAT(10I8)                                                                   
       0       0       0       0       0       0       0       0       0       0
       0       0       0       0       0       0       0       0       0       0
       0       0       0       0       0       0       0       0       0       0
       0       0       0       0       0       0       0       0       0       0
       0       0       0       0       0       0       0       0       0       0
       0       0       0       0       0       0       0       0
%FLAG RADIUS_SET                                                                
%FORMAT(1a80)                                                                   
modified Bondi radii (mbondi)                                                   
%FLAG RADII                                                                     
%FORMAT(5E16.8)                                                                 
  1.50000000E+00  1.70000000E+00  1.50000000E+00  1.50000000E+00  1.70000000E+00
  1.70000000E+00  1.70000000E+00  1.70000000E+00  1.70000000E+00  1.70000000E+00
  1.70000000E+00  1.55000000E+00  1.70000000E+00  1.50000000E+00  1.70000000E+00
  1.55000000E+00  1.70000000E+00  1.70000000E+00  1.70000000E+00  1.70000000E+00
  1.70000000E+00  1.70000000E+00  1.55000000E+00  1.70000000E+00  1.70000000E+00
  1.50000000E+00  1.70000000E+00  1.50000000E+00  1.70000000E+00  1.70000000E+00
  1.70000000E+00  1.70000000E+00  1.70000000E+00  1.70000000E+00  1.70000000E+00
  1.70000000E+00  1.30000000E+00  1.30000000E+00  1.30000000E+00  1.30000000E+00
  1.30000000E+00  1.30000000E+00  1.30000000E+00  1.30000000E+00  1.30000000E+00
  1.30000000E+00  1.30000000E+00  1.30000000E+00  1.30000000E+00  1.30000000E+00
  1.30000000E+00  1.30000000E+00  1.30000000E+00  1.30000000E+00  1.30000000E+00
  1.30000000E+00  1.30000000E+00  1.30000000E+00
%FLAG SCREEN                                                                    
%FORMAT(5E16.8)                                                                 
  8.80000000E-01  7.20000000E-01  8.80000000E-01  8.80000000E-01  7.20000000E-01
  7.20000000E-01  7.20000000E-01  7.20000000E-01  7.20000000E-01  7.20000000E-01
  7.20000000E-01  7.90000000E-01  7.20000000E-01  8.50000000E-01  7.20000000E-01
  7.90000000E-01  7.20000000E-01  7.20000000E-01  7.20000000E-01  7.20000000E-01
  7.20000000E-01  7.20000000E-01  7.90000000E-01  7.20000000E-01  7.20000000E-01
  8.50000000E-01  7.20000000E-01  8.50000000E-01  7.20000000E-01  7.20000000E-01
  7.20000000E-01  7.20000000E-01  7.20000000E-01  7.20000000E-01  7.20000000E-01
  7.20000000E-01  8.50000000E-01  8.50000000E-01  8.50000000E-01  8.50000000E-01
  8.50000000E-01  8.50000000E-01  8.50000000E-01  8.50000000E-01  8.50000000E-01
  8.50000000E-01  8.50000000E-01  8.50000000E-01  8.50000000E-01  8.50000000E-01
  8.50000000E-01  8.50000000E-01  8.50000000E-01  8.50000000E-01  8.50000000E-01
  8.50000000E-01  8.50000000E-01  8.50000000E-01
%FLAG IPOL                                                                      
%FORMAT(1I8)                                                                    
       0
