%VERSION  VERSION_STAMP = V0001.000  DATE = 09/01/26  08:21:43                  
%FLAG TITLE                                                                     
%FORMAT(20a4)                                                                   
MOL                                                                             
%FLAG POINTERS                                                                  
%FORMAT(10I8)                                                                   
      68      17      30      43      69      62     125      99       0       0
     390       1      43      62      99      36      71      26      21       0
       0       0       0       0       0       0       0       0      68       0
       0
%FLAG ATOM_NAME                                                                 
%FORMAT(20a4)                                                                   
Cl1 C1  C2  C3  N1  C4  N2  C5  C6  C7  C8  O1  N3  C9  C10 C11 C12 C13 C14 S1  
C15 C16 O2  N4  C17 C18 C19 C20 C21 C22 C23 N5  C24 C25 C26 C27 N6  C28 H1  H2  
H3  H4  H5  H6  H7  H8  H9  H10 H11 H12 H13 H14 H15 H16 H17 H18 H19 H20 H21 H22 
H23 H24 H25 H26 H27 H28 H29 H30 
%FLAG CHARGE                                                                    
%FORMAT(5E16.8)                                                                 
 -8.63737020E-01 -7.94492280E-01 -4.61024190E-01 -1.56711780E+00  3.64446000E+00
 -2.31423210E+00 -1.01334210E+01 -9.65781900E-02  7.86292245E+00 -6.59282814E+00
  1.31437450E+01 -1.10809806E+01 -8.70661494E+00  2.95747929E+00  1.84045230E+00
 -2.41081029E+00 -3.29823630E-01 -2.32152102E+00 -2.22312060E+00  3.30188076E+00
 -3.82121631E+00  1.28230325E+01 -1.07894238E+01 -1.04395557E+01  2.48369949E+00
 -1.80947439E+00 -1.89511920E+00 -1.89511920E+00 -2.59667775E+00 -2.59667775E+00
  1.30471668E+00 -1.14618267E+01  3.08503539E+00  3.08503539E+00  1.19902734E+00
  1.19902734E+00 -1.23437860E+01  1.51427313E+00  3.64446000E+00  2.95201260E+00
  2.98845720E+00  1.27191654E+00  1.15164936E+00  1.15164936E+00  1.02409326E+00
  1.02409326E+00  1.16076051E+00  1.16076051E+00  2.80623420E+00  5.91313635E+00
  1.34298351E+00  1.34298351E+00  2.80623420E+00  2.80623420E+00  2.44178820E+00
  2.44178820E+00  1.77120756E+00  1.77120756E+00  1.77120756E+00  1.77120756E+00
  1.96254171E+00  1.96254171E+00  1.96254171E+00  1.96254171E+00  8.17816824E+00
  1.91394284E+00  1.91394284E+00  1.91394284E+00
%FLAG ATOMIC_NUMBER                                                             
%FORMAT(10I8)                                                                   
      17       6       6       6       7       6       7       6       6       6
       6       8       7       6       6       6       6       6       6      16
       6       6       8       7       6       6       6       6       6       6
       6       7       6       6       6       6       7       6       1       1
       1       1       1       1       1       1       1       1       1       1
       1       1       1       1       1       1       1       1       1       1
       1       1       1       1       1       1       1       1
%FLAG MASS                                                                      
%FORMAT(5E16.8)                                                                 
  3.54500000E+01  1.20100000E+01  1.20100000E+01  1.20100000E+01  1.40100000E+01
  1.20100000E+01  1.40100000E+01  1.20100000E+01  1.20100000E+01  1.20100000E+01
  1.20100000E+01  1.60000000E+01  1.40100000E+01  1.20100000E+01  1.20100000E+01
  1.20100000E+01  1.20100000E+01  1.20100000E+01  1.20100000E+01  3.20600000E+01
  1.20100000E+01  1.20100000E+01  1.60000000E+01  1.40100000E+01  1.20100000E+01
  1.20100000E+01  1.20100000E+01  1.20100000E+01  1.20100000E+01  1.20100000E+01
  1.20100000E+01  1.40100000E+01  1.20100000E+01  1.20100000E+01  1.20100000E+01
  1.20100000E+01  1.40100000E+01  1.20100000E+01  1.00800000E+00  1.00800000E+00
  1.00800000E+00  1.00800000E+00  1.00800000E+00  1.00800000E+00  1.00800000E+00
  1.00800000E+00  1.00800000E+00  1.00800000E+00  1.00800000E+00  1.00800000E+00
  1.00800000E+00  1.00800000E+00  1.00800000E+00  1.00800000E+00  1.00800000E+00
  1.00800000E+00  1.00800000E+00  1.00800000E+00  1.00800000E+00  1.00800000E+00
  1.00800000E+00  1.00800000E+00  1.00800000E+00  1.00800000E+00  1.00800000E+00
  1.00800000E+00  1.00800000E+00  1.00800000E+00
%FLAG ATOM_TYPE_INDEX                                                           
%FORMAT(10I8)                                                                   
       1       2       2       2       3       2       4       2       2       2
       2       5       6       7       7       2       7       2       2       8
       2       2       5       9       7       2       2       2       2       2
       2      10       7       7       7       7      11       7      12      13
      13      12      14      14      14      14      15      15      13      16
      14      14      13      13      13      13      14      14      14      14
      17      17      17      17      16      17      17      17
%FLAG NUMBER_EXCLUDED_ATOMS                                                     
%FORMAT(10I8)                                                                   
       7       9       9       7       9       7       6       9       5       7
      11       3      12      12      10      11       8      11       8       7
       6       8       3       7      10      12      10       9       8       7
      13      15      12      11      13      12      13       8       1       1
       1       1       1       1       3       2       1       1       1       2
       1       1       1       1       1       1       3       2       3       2
       2       1       2       1       3       2       1       1
%FLAG NONBONDED_PARM_INDEX                                                      
%FORMAT(10I8)                                                                   
       1       2       4       7      11      16      22      29      37      46
      56      67      79      92     106     121     137       2       3       5
       8      12      17      23      30      38      47      57      68      80
      93     107     122     138       4       5       6       9      13      18
      24      31      39      48      58      69      81      94     108     123
     139       7       8       9      10      14      19      25      32      40
      49      59      70      82      95     109     124     140      11      12
      13      14      15      20      26      33      41      50      60      71
      83      96     110     125     141      16      17      18      19      20
      21      27      34      42      51      61      72      84      97     111
     126     142      22      23      24      25      26      27      28      35
      43      52      62      73      85      98     112     127     143      29
      30      31      32      33      34      35      36      44      53      63
      74      86      99     113     128     144      37      38      39      40
      41      42      43      44      45      54      64      75      87     100
     114     129     145      46      47      48      49      50      51      52
      53      54      55      65      76      88     101     115     130     146
      56      57      58      59      60      61      62      63      64      65
      66      77      89     102     116     131     147      67      68      69
      70      71      72      73      74      75      76      77      78      90
     103     117     132     148      79      80      81      82      83      84
      85      86      87      88      89      90      91     104     118     133
     149      92      93      94      95      96      97      98      99     100
     101     102     103     104     105     119     134     150     106     107
     108     109     110     111     112     113     114     115     116     117
     118     119     120     135     151     121     122     123     124     125
     126     127     128     129     130     131     132     133     134     135
     136     152     137     138     139     140     141     142     143     144
     145     146     147     148     149     150     151     152     153
%FLAG RESIDUE_LABEL                                                             
%FORMAT(20a4)                                                                   
MOL 
%FLAG RESIDUE_POINTER                                                           
%FORMAT(10I8)                                                                   
       1
%FLAG BOND_FORCE_CONSTANT                                                       
%FORMAT(5E16.8)                                                                 
  1.99240000E+02  3.86240000E+02  3.22020000E+02  3.32450000E+02  3.67290000E+02
  3.64120000E+02  2.90410000E+02  3.21490000E+02  3.64600000E+02  4.19720000E+02
  3.68720000E+02  2.81780000E+02  5.90600000E+02  3.17460000E+02  2.52360000E+02
  2.53390000E+02  3.42020000E+02  2.26810000E+02  2.50490000E+02  3.42750000E+02
  2.26530000E+02  2.78120000E+02  3.36070000E+02  2.61660000E+02  4.73590000E+02
  2.43910000E+02  3.44220000E+02  3.54250000E+02  3.60690000E+02  3.10840000E+02
  2.52920000E+02  2.16590000E+02  3.49850000E+02  2.19760000E+02  4.31010000E+02
  3.52860000E+02
%FLAG BOND_EQUIL_VALUE                                                          
%FORMAT(5E16.8)                                                                 
  1.73550000E+00  1.37300000E+00  1.42740000E+00  1.38300000E+00  1.08180000E+00
  1.08380000E+00  1.35700000E+00  1.42790000E+00  1.08350000E+00  1.31580000E+00
  1.08090000E+00  1.46870000E+00  1.21900000E+00  1.39670000E+00  1.46690000E+00
  1.50240000E+00  1.09840000E+00  1.53840000E+00  1.50610000E+00  1.09790000E+00
  1.76220000E+00  1.47280000E+00  1.37980000E+00  1.45560000E+00  1.01320000E+00
  1.51470000E+00  1.09690000E+00  1.39860000E+00  1.08600000E+00  1.40300000E+00
  1.46620000E+00  1.51560000E+00  1.09310000E+00  1.51090000E+00  1.03380000E+00
  1.09110000E+00
%FLAG ANGLE_FORCE_CONSTANT                                                      
%FORMAT(5E16.8)                                                                 
  6.39200000E+01  6.41300000E+01  7.19900000E+01  4.42000000E+01  6.37700000E+01
  4.42000000E+01  8.81800000E+01  8.27900000E+01  6.45700000E+01  4.52500000E+01
  4.80800000E+01  9.39400000E+01  6.78000000E+01  4.53000000E+01  6.70300000E+01
  5.03500000E+01  4.38000000E+01  6.22000000E+01  6.11200000E+01  4.29500000E+01
  7.83600000E+01  6.80100000E+01  7.66300000E+01  8.66800000E+01  6.62000000E+01
  4.80600000E+01  6.52900000E+01  7.69600000E+01  6.07200000E+01  6.07200000E+01
  6.08400000E+01  4.32300000E+01  4.40100000E+01  6.07600000E+01  6.58400000E+01
  4.32800000E+01  6.20200000E+01  4.39200000E+01  1.01890000E+02  6.21000000E+01
  6.23300000E+01  7.83100000E+01  6.84100000E+01  7.69000000E+01  5.73700000E+01
  8.72100000E+01  6.58400000E+01  4.83900000E+01  5.46200000E+01  6.07400000E+01
  4.38100000E+01  6.36700000E+01  4.49000000E+01  6.71800000E+01  7.72200000E+01
  6.55700000E+01  4.79000000E+01  7.75900000E+01  6.43500000E+01  4.29100000E+01
  7.55500000E+01  7.50600000E+01  5.49800000E+01  4.71000000E+01  4.68800000E+01
  5.52900000E+01  3.57700000E+01  3.59300000E+01  3.56400000E+01  3.57700000E+01
  3.56300000E+01
%FLAG ANGLE_EQUIL_VALUE                                                         
%FORMAT(5E16.8)                                                                 
  2.15042109E+00  2.09823573E+00  1.90223517E+00  2.22773921E+00  2.08025883E+00
  2.08933454E+00  1.95843479E+00  1.93557097E+00  2.02824799E+00  2.12406661E+00
  2.09736306E+00  1.81235067E+00  2.05983847E+00  2.11883062E+00  2.19998847E+00
  2.06577259E+00  2.12668460E+00  2.11743436E+00  2.11935422E+00  2.21447470E+00
  2.16525640E+00  1.96681238E+00  2.10259905E+00  2.13925098E+00  1.93661817E+00
  1.89403212E+00  1.94028336E+00  1.99089793E+00  2.16211480E+00  2.09457053E+00
  1.93574550E+00  1.91026369E+00  1.92265553E+00  2.15303909E+00  1.97833156E+00
  1.90555129E+00  2.12877900E+00  1.92283006E+00  1.56957527E+00  2.11743436E+00
  2.13576032E+00  2.15914774E+00  1.95826026E+00  2.12860447E+00  2.04657396E+00
  2.14762857E+00  1.95511867E+00  1.89350852E+00  2.04936649E+00  2.10888224E+00
  1.91288168E+00  2.09474507E+00  2.09230160E+00  2.11411823E+00  2.06350366E+00
  1.92474992E+00  1.90799476E+00  1.96052919E+00  1.93836350E+00  1.94045789E+00
  1.93539644E+00  1.96663784E+00  1.86994656E+00  1.86488511E+00  1.89350852E+00
  1.86017271E+00  1.87622975E+00  1.86087085E+00  1.89455572E+00  1.89420665E+00
  1.91619781E+00
%FLAG DIHEDRAL_FORCE_CONSTANT                                                   
%FORMAT(5E16.8)                                                                 
  4.00000000E+00  1.70000000E+00  4.80000000E+00  4.75000000E+00  2.87500000E+00
  2.50000000E+00  0.00000000E+00  0.00000000E+00  1.02000000E+00  1.70000000E-01
  1.00000000E-01  0.00000000E+00  1.55555556E-01  1.57000000E-01  2.43000000E+00
  1.10000000E+00  1.61000000E+00  0.00000000E+00  2.00000000E+00  3.62500000E+00
  7.53000000E-01  3.32000000E-01  1.56000000E-01  1.09000000E-01  1.05000000E+01
  1.10000000E+00
%FLAG DIHEDRAL_PERIODICITY                                                      
%FORMAT(5E16.8)                                                                 
  2.00000000E+00  2.00000000E+00  2.00000000E+00  2.00000000E+00  2.00000000E+00
  2.00000000E+00  2.00000000E+00  2.00000000E+00  1.00000000E+00  3.00000000E+00
  4.00000000E+00  3.00000000E+00  3.00000000E+00  3.00000000E+00  1.00000000E+00
  2.00000000E+00  3.00000000E+00  1.00000000E+00  1.00000000E+00  2.00000000E+00
  2.00000000E+00  2.00000000E+00  3.00000000E+00  3.00000000E+00  2.00000000E+00
  2.00000000E+00
%FLAG DIHEDRAL_PHASE                                                            
%FORMAT(5E16.8)                                                                 
  3.14159400E+00  3.14159400E+00  3.14159400E+00  3.14159400E+00  3.14159400E+00
  3.14159400E+00  0.00000000E+00  3.14159400E+00  3.14159400E+00  0.00000000E+00
  3.14159400E+00  0.00000000E+00  0.00000000E+00  3.14159400E+00  3.14159400E+00
  3.14159400E+00  3.14159400E+00  0.00000000E+00  0.00000000E+00  3.14159400E+00
  3.14159400E+00  0.00000000E+00  0.00000000E+00  0.00000000E+00  3.14159400E+00
  3.14159400E+00
%FLAG SCEE_SCALE_FACTOR                                                         
%FORMAT(5E16.8)                                                                 
  1.20000000E+00  1.20000000E+00  1.20000000E+00  1.20000000E+00  1.20000000E+00
  1.20000000E+00  1.20000000E+00  1.20000000E+00  1.20000000E+00  1.20000000E+00
  1.20000000E+00  1.20000000E+00  1.20000000E+00  1.20000000E+00  1.20000000E+00
  1.20000000E+00  1.20000000E+00  1.20000000E+00  1.20000000E+00  1.20000000E+00
  1.20000000E+00  1.20000000E+00  1.20000000E+00  1.20000000E+00  0.00000000E+00
  0.00000000E+00
%FLAG SCNB_SCALE_FACTOR                                                         
%FORMAT(5E16.8)                                                                 
  2.00000000E+00  2.00000000E+00  2.00000000E+00  2.00000000E+00  2.00000000E+00
  2.00000000E+00  2.00000000E+00  2.00000000E+00  2.00000000E+00  2.00000000E+00
  2.00000000E+00  2.00000000E+00  2.00000000E+00  2.00000000E+00  2.00000000E+00
  2.00000000E+00  2.00000000E+00  2.00000000E+00  2.00000000E+00  2.00000000E+00
  2.00000000E+00  2.00000000E+00  2.00000000E+00  2.00000000E+00  0.00000000E+00
  0.00000000E+00
%FLAG SOLTY                                                                     
%FORMAT(5E16.8)                                                                 
  0.00000000E+00  0.00000000E+00  0.00000000E+00  0.00000000E+00  0.00000000E+00
  0.00000000E+00  0.00000000E+00  0.00000000E+00  0.00000000E+00  0.00000000E+00
  0.00000000E+00  0.00000000E+00  0.00000000E+00  0.00000000E+00  0.00000000E+00
  0.00000000E+00  0.00000000E+00  0.00000000E+00  0.00000000E+00  0.00000000E+00
  0.00000000E+00
%FLAG LENNARD_JONES_ACOEF                                                       
%FORMAT(5E16.8)                                                                 
  3.17107030E+06  1.49062160E+06  6.96551276E+05  1.76299915E+06  8.20152428E+05
  9.62429652E+05  1.64251971E+06  7.69642101E+05  9.08092643E+05  8.49322032E+05
  1.11993097E+06  5.17507491E+05  6.04208667E+05  5.74782316E+05  3.76435470E+05
  1.50866868E+06  7.01106848E+05  8.22085792E+05  7.76656876E+05  5.15491878E+05
  7.02078680E+05  1.80018612E+06  8.43969952E+05  9.96191545E+05  9.31115275E+05
  6.30925504E+05  8.52084164E+05  1.02073671E+06  3.67899711E+06  1.73376823E+06
  2.05449504E+06  1.90820499E+06  1.30884564E+06  1.75889445E+06  2.09089895E+06
  4.26366419E+06  1.49942414E+06  6.99381362E+05  8.22346035E+05  7.73425391E+05
  5.17814271E+05  7.02755693E+05  8.48258258E+05  1.74537186E+06  7.01825028E+05
  1.75809166E+06  8.17329084E+05  9.58637891E+05  9.05243612E+05  6.01376873E+05
  8.18751801E+05  9.93125065E+05  2.04935397E+06  8.19347611E+05  9.54790629E+05
  1.94172346E+06  8.78080588E+05  1.00856479E+06  9.85071815E+05  6.13063863E+05
  8.57202189E+05  1.08339010E+06  2.29022351E+06  8.72740728E+05  1.00141202E+06
  9.21656095E+05  1.39186903E+05  6.27751680E+04  7.19580450E+04  7.05112106E+04
  4.36069364E+04  6.11299385E+04  7.75673747E+04  1.64354276E+05  6.23418310E+04
  7.14263282E+04  6.49071593E+04  4.56536476E+03  1.66104821E+05  7.52549148E+04
  8.65595848E+04  8.43518904E+04  5.27277400E+04  7.35931098E+04  9.27554496E+04
  1.95762765E+05  7.48403283E+04  8.59636060E+04  7.98194249E+04  5.62610481E+03
  6.90855956E+03  1.25585106E+05  5.63013422E+04  6.42436358E+04  6.34160397E+04
  3.86646725E+04  5.45183252E+04  6.97998263E+04  1.48672098E+05  5.58085097E+04
  6.37258620E+04  5.62691404E+04  3.94664935E+03  4.88692384E+03  3.39005767E+03
  1.79601155E+05  8.12662403E+04  9.33839501E+04  9.11435380E+04  5.68021765E+04
  7.93773615E+04  1.00235148E+05  2.11783234E+05  8.07866982E+04  9.27277603E+04
  8.55808446E+04  6.02863188E+03  7.41026906E+03  5.22955465E+03  7.94617769E+03
  4.18912581E+03  1.71458823E+03  1.82491629E+03  2.01475241E+03  9.87857350E+02
  1.52360475E+03  2.23577481E+03  5.15374979E+03  1.65195713E+03  1.79157166E+03
  1.00942006E+03  6.76796831E+01  9.04434904E+01  5.24570081E+01  9.47421632E+01
  1.34728399E-01  4.00807245E+04  1.74110867E+04  1.93962554E+04  1.99003866E+04
  1.12566992E+04  1.63679607E+04  2.19657590E+04  4.80874647E+04  1.70902479E+04
  1.91715719E+04  1.45326307E+04  1.00402713E+03  1.27542632E+03  8.33358592E+02
  1.35510742E+03  7.30589786E+00  1.70079100E+02
%FLAG LENNARD_JONES_BCOEF                                                       
%FORMAT(5E16.8)                                                                 
  1.82923847E+03  9.81118883E+02  5.24668528E+02  1.27934796E+03  6.82622272E+02
  8.86629877E+02  1.01742263E+03  5.44830041E+02  7.09588248E+02  5.65406768E+02
  9.38113535E+02  4.98871431E+02  6.46321327E+02  5.19385932E+02  4.69350655E+02
  1.11967364E+03  5.97113873E+02  7.75261695E+02  6.20851625E+02  5.64804067E+02
  6.77820248E+02  1.10195051E+03  5.90251928E+02  7.68900328E+02  6.12468585E+02
  5.62969425E+02  6.72777963E+02  6.63431737E+02  2.00414708E+03  1.07629402E+03
  1.40479403E+03  1.11546536E+03  1.03157656E+03  1.22973599E+03  1.20800124E+03
  2.19459223E+03  1.02737257E+03  5.48900066E+02  7.13654906E+02  5.70234696E+02
  5.21008860E+02  6.24158704E+02  6.17825399E+02  1.12747567E+03  5.74088001E+02
  1.29413346E+03  6.90283231E+02  8.96356641E+02  7.17661669E+02  6.53166727E+02
  7.83721154E+02  7.77671659E+02  1.42122969E+03  7.21590374E+02  9.06156687E+02
  2.52276692E+03  1.32715352E+03  1.70541695E+03  1.38866053E+03  1.22328790E+03
  1.48748365E+03  1.50664821E+03  2.78689013E+03  1.38141570E+03  1.72139587E+03
  3.06326052E+03  1.90482178E+02  1.00073628E+02  1.28466555E+02  1.04776275E+02
  9.20079458E+01  1.12023534E+02  1.13692208E+02  2.10544132E+02  1.04122183E+02
  1.29650812E+02  2.29254310E+02  1.71467049E+01  2.08087638E+02  1.09570372E+02
  1.40899023E+02  1.14599119E+02  1.01173582E+02  1.22913863E+02  1.24325688E+02
  2.29782888E+02  1.14083104E+02  1.42233990E+02  2.54229244E+02  1.90347353E+01
  2.10929191E+01  1.92900608E+02  1.01040256E+02  1.29412081E+02  1.05935811E+02
  9.23664132E+01  1.12788003E+02  1.14981426E+02  2.13489607E+02  1.05029928E+02
  1.30560951E+02  2.27570369E+02  1.69967767E+01  1.89134207E+01  1.67944276E+01
  2.30684859E+02  1.21392023E+02  1.56025608E+02  1.27000718E+02  1.11953944E+02
  1.36094315E+02  1.37787728E+02  2.54804909E+02  1.26366740E+02  1.57492664E+02
  2.80652463E+02  2.10068861E+01  2.32899892E+01  2.08590256E+01  2.57122925E+01
  2.93366416E+01  1.46824710E+01  1.81620725E+01  1.57231024E+01  1.22938581E+01
  1.57004457E+01  1.71355763E+01  3.30984635E+01  1.50468782E+01  1.82287422E+01
  2.53805311E+01  1.85338491E+00  2.14252117E+00  1.73959275E+00  2.33785449E+00
  7.34107347E-02  1.08976363E+02  5.61885732E+01  7.11080405E+01  5.93436142E+01
  4.98382106E+01  6.18000664E+01  6.45020662E+01  1.21416565E+02  5.81215296E+01
  7.16117531E+01  1.15651879E+02  8.57284598E+00  9.66228818E+00  8.32679019E+00
  1.06181419E+01  6.49206153E-01  3.76172582E+00
%FLAG BONDS_INC_HYDROGEN                                                        
%FORMAT(10I8)                                                                   
       6     114       5       9     117       6      15     120       9      24
     123      11      39     126      17      39     129      17      42     132
      17      42     135      17      48     138      20      48     141      20
      54     144       6      69     147      25      72     150      27      72
     153      27      78     156      29      81     159      29      84     162
      29      87     165      29      96     168      17      96     171      17
      99     174      17      99     177      17     102     180      33     102
     183      33     105     186      33     105     189      33     108     192
      35     111     195      36     111     198      36     111     201      36
%FLAG BONDS_WITHOUT_HYDROGEN                                                    
%FORMAT(10I8)                                                                   
       0       3       1       3       6       2       3       9       3       6
      12       4       9      15       2      12      18       7      12      21
       4      15      21       8      18      24      10      21      27       2
      24      27       3      27      30      12      30      33      13      30
      36      14      36      39      15      36      42      15      39      45
      16      42      48      18      45      51       2      45      54       3
      48      51      19      51      57      21      54      60       2      57
      60      21      60      63      22      63      66      13      63      69
      23      69      72      24      72      75      26      75      78      28
      75      81      28      78      84      28      81      87      28      84
      90      28      87      90      28      90      93      30      93      96
      31      93      99      31      96     102      18      99     105      18
     102     108      32     105     108      32     108     111      34
%FLAG ANGLES_INC_HYDROGEN                                                       
%FORMAT(10I8)                                                                   
       3       6     114       4       3       9     117       6       9      15
     120      10      12       6     114      11      15       9     117      14
      18      24     123      16      21      15     120      17      27      24
     123      20      36      39     126      26      36      39     129      26
      36      42     132      26      36      42     135      26      42      48
     138      32      42      48     141      32      45      39     126      33
      45      39     129      33      45      54     144       6      48      42
     132      36      48      42     135      36      51      48     138      38
      51      48     141      38      60      54     144      14      63      69
     147      45      69      72     150      48      69      72     153      48
      72      69     147      49      75      72     150      51      75      72
     153      51      75      78     156      53      75      81     159      53
      78      84     162      53      81      87     165      53      84      78
     156      53      87      81     159      53      90      84     162      53
      90      87     165      53      93      96     168      57      93      96
     171      57      93      99     174      57      93      99     177      57
      96     102     180      60      96     102     183      60      99     105
     186      60      99     105     189      60     102      96     168      36
     102      96     171      36     102     108     192      63     105      99
     174      36     105      99     177      36     105     108     192      63
     108     102     180      64     108     102     183      64     108     105
     186      64     108     105     189      64     108     111     195      65
     108     111     198      65     108     111     201      65     111     108
     192      66     126      39     129      67     132      42     135      67
     138      48     141      68     150      72     153      69     168      96
     171      67     174      99     177      67     180     102     183      70
     186     105     189      70     195     111     198      71     195     111
     201      71     198     111     201      71
%FLAG ANGLES_WITHOUT_HYDROGEN                                                   
%FORMAT(10I8)                                                                   
       0       3       6       1       0       3       9       2       3       6
      12       3       3       9      15       5       6       3       9       5
       6      12      18       7       6      12      21       8       9      15
      21       9      12      18      24      12      12      21      15      13
      12      21      27       3      15      21      27       9      18      12
      21       7      18      24      27      15      21      27      24       5
      21      27      30      18      24      27      30      19      27      30
      33      21      27      30      36      22      30      36      39      23
      30      36      42      23      33      30      36      24      36      39
      45      25      36      42      48      27      39      36      42      28
      39      45      51      29      39      45      54      30      42      48
      51      31      45      51      48      34      45      51      57      35
      45      54      60       5      48      51      57      37      51      45
      54       5      51      57      60      39      54      60      57      35
      54      60      63      40      57      60      63      41      60      63
      66      42      60      63      69      43      63      69      72      44
      66      63      69      46      69      72      75      47      72      75
      78      50      72      75      81      50      75      78      84      52
      75      81      87      52      78      75      81      52      78      84
      90      52      81      87      90      52      84      90      87      52
      84      90      93      54      87      90      93      54      90      93
      96      55      90      93      99      55      93      96     102      56
      93      99     105      56      96      93      99      58      96     102
     108      59      99     105     108      59     102     108     105      61
     102     108     111      62     105     108     111      62
%FLAG DIHEDRALS_INC_HYDROGEN                                                    
%FORMAT(10I8)                                                                   
       0       3       6     114       1       0       3       9     117       1
       3       9      15     120       1       6       3       9     117       1
       9       3       6     114       1      12      18      24     123       4
      12      21      15     120       1      18      12       6     114       2
      21      12       6     114       2      21      15       9     117       1
      21      27      24     123       1      27      21      15     120       1
      30      27      24     123       1      30      36      39     126       8
      30      36      39     129       8      30      36      42     132       8
      30      36      42     135       8      36      42      48     138      13
      36      42      48     141      13      39      36      42     132       7
      39      36      42     135       7      39      45      54     144       1
      42      36      39     126       7      42      36      39     129       7
      45      51      48     138      12      45      51      48     141      12
      51      45      39     126      12      51      45      39     129      12
      51      45      54     144       1      51      48      42     132      13
      51      48      42     135      13      54      45      39     126      12
      54      45      39     129      12      57      51      48     138      12
      57      51      48     141      12      57      60      54     144       1
      60      63      69     147       6      63      60      54     144       1
      63      69      72     150      18      63      69      72     153      18
      66      63      69     147      19      66      63     -69     147       6
      72      75      78     156      20      72      75      81     159      20
      75      72      69     147       7      75      78      84     162      20
      75      81      87     165      20      78      75      72     150       7
      78      75      72     153       7      78      75      81     159      20
      81      75      72     150       7      81      75      72     153       7
      81      75      78     156      20      84      90      87     165      20
      87      90      84     162      20      90      84      78     156      20
      90      87      81     159      20      90      93      96     168      22
      90      93      96     171      22      90      93      99     174      22
      90      93      99     177      22      93      90      84     162      20
      93      90      87     165      20      93      96     102     180      13
      93      96     102     183      13      93      99     105     186      13
      93      99     105     189      13      96      93      99     174       7
      96      93      99     177       7      96     102     108     192      13
      99      93      96     168       7      99      93      96     171       7
      99     105     108     192      13     102     108     105     186      13
     102     108     105     189      13     102     108     111     195      13
     102     108     111     198      13     102     108     111     201      13
     105     108     102     180      13     105     108     102     183      13
     105     108     111     195      13     105     108     111     198      13
     105     108     111     201      13     108     102      96     168      13
     108     102      96     171      13     108     105      99     174      13
     108     105      99     177      13     111     108     102     180      13
     111     108     102     183      13     111     108     105     186      13
     111     108     105     189      13     117       9      15     120       1
     132      42      48     138      13     132      42      48     141      13
     135      42      48     138      13     135      42      48     141      13
     147      69      72     150       7     147      69      72     153       7
     156      78      84     162      20     159      81      87     165      20
     168      96     102     180      13     168      96     102     183      13
     171      96     102     180      13     171      96     102     183      13
     174      99     105     186      13     174      99     105     189      13
     177      99     105     186      13     177      99     105     189      13
     180     102     108     192      24     183     102     108     192      24
     186     105     108     192      24     189     105     108     192      24
     192     108     111     195      24     192     108     111     198      24
     192     108     111     201      24       3     114      -6     -12      25
       3      15      -9    -117      25       9      21     -15    -120      25
      27     123     -24     -18      25      45      60     -54    -144      25
      63      72     -69    -147      26      75      84     -78    -156      26
      75      87     -81    -159      26      78      90     -84    -162      26
      81      90     -87    -165      26
%FLAG DIHEDRALS_WITHOUT_HYDROGEN                                                
%FORMAT(10I8)                                                                   
       0       3       6      12       1       0       3       9      15       1
       3       6      12      18       2       3       6      12      21       2
       3       9     -15      21       1       6       3       9      15       1
       6      12      18      24       3       6      12     -21      15       2
       6      12      21      27       2       9       3       6      12       1
       9      15     -21      12       1       9      15      21      27       1
      12      18     -24      27       4      12      21     -27      24       1
      12      21      27      30       1      15      21      12      18       2
      15      21      27      24       1      15      21      27      30       1
      18      12     -21      27       2      18      24     -27      21       1
      18      24      27      30       1      21      12     -18      24       3
      21      27      30      33       5      21      27      30      36       5
      24      27      30      33       5      24      27      30      36       5
      27      30      36      39       6      27      30      36      42       6
      30      36      39      45       7      30      36      42      48       9
      30      36     -42      48      10      30      36     -42      48      11
      33      30      36      39       6      33      30      36      42       6
      36      39      45      51      12      36      39      45      54      12
      36      42     -48      51      13      39      36      42      48       7
      39      45     -51      48       1      39      45      51      57       1
      39      45      54      60       1      42      36      39      45       7
      42      48     -51      45      14      42      48      51      57      12
      45      51     -57      60      15      45      54     -60      57       1
      45      54      60      63       1      48      51      45      54       1
      48      51      57      60      16      51      45     -54      60       1
      51      57     -60      54      15      51      57      60      63      17
      54      45     -51      57       1      54      60      63      66       5
      54      60      63      69       5      57      60      63      66       5
      57      60      63      69       5      60      63      69      72       6
      63      69      72      75       7      66      63      69      72       6
      69      72      75      78       7      69      72      75      81       7
      72      75      78      84      20      72      75      81      87      20
      75      78      84      90      20      75      81     -87      90      20
      78      75      81      87      20      78      84     -90      87      20
      78      84      90      93      20      81      75      78      84      20
      81      87     -90      84      20      81      87      90      93      20
      84      90      93      96      21      84      90      93      99      21
      87      90      93      96      21      87      90      93      99      21
      90      93      96     102       7      90      93      99     105       7
      93      96     102     108      13      93      99    -105     108      13
      96      93      99     105       7      96     102    -108     105      23
      96     102     108     111      23      99      93      96     102       7
      99     105    -108     102      23      99     105     108     111      23
       0       3      -6      -9      25       6      21     -12     -18      26
      27      15     -21     -12      25      30      24     -27     -21      25
      27      36     -30     -33      25      30      39     -36     -42      26
      39      54     -45     -51      25      48      45     -51     -57      25
      63      54     -60     -57      25      60      69     -63     -66      25
      78      81     -75     -72      26      84      87     -90     -93      25
      96      99     -93     -90      26
%FLAG EXCLUDED_ATOMS_LIST                                                       
%FORMAT(10I8)                                                                   
       2       3       4       5       6      39      40       3       4       5
       6       7       8      39      40      41       4       5       6       7
       8       9      10      39      40       5       6       8      10      39
      40      41       6       7       8       9      10      11      39      41
      42       7       8       9      10      11      40      41       8       9
      10      11      39      42       9      10      11      12      13      39
      40      41      42      10      11      12      13      42      11      12
      13      14      15      41      42      12      13      14      15      16
      17      42      43      44      45      46      13      14      15      14
      15      16      17      18      19      43      44      45      46      47
      48      15      16      17      18      19      20      21      43      44
      45      46      49      16      17      18      20      43      44      45
      46      47      48      17      18      19      20      21      22      43
      44      47      48      49      18      19      20      21      45      46
      47      48      19      20      21      22      43      44      45      46
      47      48      49      20      21      22      23      24      43      44
      49      21      22      23      24      47      48      49      22      23
      24      25      49      50      23      24      25      26      49      50
      51      52      24      25      50      25      26      27      28      50
      51      52      26      27      28      29      30      50      51      52
      53      54      27      28      29      30      31      50      51      52
      53      54      55      56      28      29      30      31      32      51
      52      53      54      55      29      30      31      32      51      52
      53      54      56      30      31      32      33      34      53      55
      56      31      32      33      34      54      55      56      32      33
      34      35      36      53      54      55      56      57      58      59
      60      33      34      35      36      37      55      56      57      58
      59      60      61      62      63      64      34      35      36      37
      38      57      58      59      60      61      62      65      35      36
      37      38      57      58      59      60      63      64      65      36
      37      38      57      58      61      62      63      64      65      66
      67      68      37      38      59      60      61      62      63      64
      65      66      67      68      38      57      58      59      60      61
      62      63      64      65      66      67      68      61      62      63
      64      65      66      67      68       0      41       0       0      44
       0      46      47      48      47      48      48       0       0      51
      52      52       0      55      56       0       0      58      61      62
      61      62      60      63      64      63      64      62      65      65
      64      65      65      66      67      68      67      68      68       0
%FLAG HBOND_ACOEF                                                               
%FORMAT(5E16.8)                                                                 

%FLAG HBOND_BCOEF                                                               
%FORMAT(5E16.8)                                                                 

%FLAG HBCUT                                                                     
%FORMAT(5E16.8)                                                                 

%FLAG AMBER_ATOM_TYPE                                                           
%FORMAT(20a4)                                                                   
cl  cc  cd  cc  na  cd  nd  cd  cc  cc  c   o   n   c6  c6  cc  c6  cd  cc  ss  
cd  c   o   ns  c3  ca  ca  ca  ca  ca  ca  nh  c6  c6  c6  c6  nx  c3  h4  ha  
ha  h4  h1  h1  h1  h1  hc  hc  ha  hn  h1  h1  ha  ha  ha  ha  h1  h1  h1  h1  
hx  hx  hx  hx  hn  hx  hx  hx  
%FLAG TREE_CHAIN_CLASSIFICATION                                                 
%FORMAT(20a4)                                                                   
BLA BLA BLA BLA BLA BLA BLA BLA BLA BLA BLA BLA BLA BLA BLA BLA BLA BLA BLA BLA 
BLA BLA BLA BLA BLA BLA BLA BLA BLA BLA BLA BLA BLA BLA BLA BLA BLA BLA BLA BLA 
BLA BLA BLA BLA BLA BLA BLA BLA BLA BLA BLA BLA BLA BLA BLA BLA BLA BLA BLA BLA 
BLA BLA BLA BLA BLA BLA BLA BLA 
%FLAG JOIN_ARRAY                                                                
%FORMAT(10I8)                                                                   
       0       0       0       0       0       0       0       0       0       0
       0       0       0       0       0       0       0       0       0       0
       0       0       0       0       0       0       0       0       0       0
       0       0       0       0       0       0       0       0       0       0
       0       0       0       0       0       0       0       0       0       0
       0       0       0       0       0       0       0       0       0       0
       0       0       0       0       0       0       0       0
%FLAG IROTAT                                                                    
%FORMAT(10I8)                                                                   
       0       0       0       0       0       0       0       0       0       0
       0       0       0       0       0       0       0       0       0       0
       0       0       0       0       0       0       0       0       0       0
       0       0       0       0       0       0       0       0       0       0
       0       0       0       0       0       0       0       0       0       0
       0       0       0       0       0       0       0       0       0       0
       0       0       0       0       0       0       0       0
%FLAG RADIUS_SET                                                                
%FORMAT(1a80)                                                                   
modified Bondi radii (mbondi)                                                   
%FLAG RADII                                                                     
%FORMAT(5E16.8)                                                                 
  1.70000000E+00  1.70000000E+00  1.70000000E+00  1.70000000E+00  1.55000000E+00
  1.70000000E+00  1.55000000E+00  1.70000000E+00  1.70000000E+00  1.70000000E+00
  1.70000000E+00  1.50000000E+00  1.55000000E+00  1.70000000E+00  1.70000000E+00
  1.70000000E+00  1.70000000E+00  1.70000000E+00  1.70000000E+00  1.80000000E+00
  1.70000000E+00  1.70000000E+00  1.50000000E+00  1.55000000E+00  1.70000000E+00
  1.70000000E+00  1.70000000E+00  1.70000000E+00  1.70000000E+00  1.70000000E+00
  1.70000000E+00  1.55000000E+00  1.70000000E+00  1.70000000E+00  1.70000000E+00
  1.70000000E+00  1.55000000E+00  1.70000000E+00  1.30000000E+00  1.30000000E+00
  1.30000000E+00  1.30000000E+00  1.30000000E+00  1.30000000E+00  1.30000000E+00
  1.30000000E+00  1.30000000E+00  1.30000000E+00  1.30000000E+00  1.30000000E+00
  1.30000000E+00  1.30000000E+00  1.30000000E+00  1.30000000E+00  1.30000000E+00
  1.30000000E+00  1.30000000E+00  1.30000000E+00  1.30000000E+00  1.30000000E+00
  1.30000000E+00  1.30000000E+00  1.30000000E+00  1.30000000E+00  1.30000000E+00
  1.30000000E+00  1.30000000E+00  1.30000000E+00
%FLAG SCREEN                                                                    
%FORMAT(5E16.8)                                                                 
  8.00000000E-01  7.20000000E-01  7.20000000E-01  7.20000000E-01  7.90000000E-01
  7.20000000E-01  7.90000000E-01  7.20000000E-01  7.20000000E-01  7.20000000E-01
  7.20000000E-01  8.50000000E-01  7.90000000E-01  7.20000000E-01  7.20000000E-01
  7.20000000E-01  7.20000000E-01  7.20000000E-01  7.20000000E-01  9.60000000E-01
  7.20000000E-01  7.20000000E-01  8.50000000E-01  7.90000000E-01  7.20000000E-01
  7.20000000E-01  7.20000000E-01  7.20000000E-01  7.20000000E-01  7.20000000E-01
  7.20000000E-01  7.90000000E-01  7.20000000E-01  7.20000000E-01  7.20000000E-01
  7.20000000E-01  7.90000000E-01  7.20000000E-01  8.50000000E-01  8.50000000E-01
  8.50000000E-01  8.50000000E-01  8.50000000E-01  8.50000000E-01  8.50000000E-01
  8.50000000E-01  8.50000000E-01  8.50000000E-01  8.50000000E-01  8.50000000E-01
  8.50000000E-01  8.50000000E-01  8.50000000E-01  8.50000000E-01  8.50000000E-01
  8.50000000E-01  8.50000000E-01  8.50000000E-01  8.50000000E-01  8.50000000E-01
  8.50000000E-01  8.50000000E-01  8.50000000E-01  8.50000000E-01  8.50000000E-01
  8.50000000E-01  8.50000000E-01  8.50000000E-01
%FLAG IPOL                                                                      
%FORMAT(1I8)                                                                    
       0
