default_name
 83532
  73.1424632  43.3772349  69.1136398  72.8260235  44.3290569  69.2319692
  72.8716136  43.0569618  68.1948547  74.1076458  43.3174342  69.4050947
  72.4061193  42.5365046  70.0466243  71.8477207  41.7809636  69.4939508
  73.3669389  41.8222892  71.0277211  72.9977417  40.8067548  71.1708384
  74.3509040  41.7880755  70.5600224  73.4640160  42.4728699  72.2879833
  74.0704809  41.9879964  72.8525165  71.3739514  43.3741725  70.7977056
  71.3170739  44.6051614  70.6609641  70.5434393  42.6860081  71.5789798
  70.6063914  41.6779867  71.5843969  69.4999604  43.3156035  72.3713397
  69.3183452  44.3268171  72.0072486  68.2030015  42.5212841  72.2703195
  68.4343951  41.4665969  72.4192869  67.5310720  42.8601995  73.0588289
  67.5391791  42.7045327  70.9333928  68.1960452  42.3314641  70.1476145
  66.6005761  42.1506474  70.9150259  67.2025757  44.4488106  70.6445695
  66.0699976  44.7450512  71.9948989  66.5684933  44.5337458  72.9409175
  65.7489429  45.7865699  71.9786753  65.2007991  44.0957736  71.8898569
  69.9032769  43.4781526  73.8189131  69.0376666  43.6212371  74.6903547
  71.1985840  43.4283089  74.0986760  71.8561635  42.9139596  73.5302279
  71.6981513  44.1247891  75.2668082  71.2843962  43.6693706  76.1665304
  73.2202866  44.0531060  75.3399145  73.5946622  44.7576648  74.5972578
  73.4941341  44.3974754  76.3371694  73.8279236  42.6907704  75.0929973
  73.3152009  41.9390523  75.6931107  73.6973596  42.4615978  74.0353905
  75.3078722  42.6859029  75.4326406  75.9643700  43.7226895  75.1838048
  75.8045619  41.6675669  75.9712353  71.2519826  45.5809388  75.1723753
  70.5969116  45.9841621  74.1990660  71.6166739  46.3772761  76.1765228
  72.0383691  45.9382832  76.9824743  71.3591774  47.8176631  76.2259974
  71.7034725  48.2190255  77.1791334  72.1009736  48.5454668  75.0885432
  72.8218483  47.8629300  74.6384516  71.3679308  48.8446753  74.3393953
  72.8536237  49.8089834  75.5772759  72.3536826  50.5587446  76.4285326
  74.0614095  50.0335423  75.0428568  74.5935042  50.8434755  75.3274326
  74.4343607  49.3918797  74.3578187  69.8682282  48.1555950  76.1993991
  69.5035367  49.3324440  76.2720458  68.9983672  47.1502792  76.1208700
  69.3398220  46.2195101  75.9280569  67.5550949  47.3501816  76.2281700
  67.3455295  48.4060603  76.3993470  66.8446219  46.9131098  74.9518015
  67.2563564  45.9874865  74.5495635  65.7863985  46.7736310  75.1727289
  66.9230432  47.9309998  73.8526837  66.6535285  49.2668472  74.1180866
  66.3710952  49.5572944  75.1300015  66.7387293  50.2233780  73.1222068
  66.5169725  51.2678835  73.3411427  67.1061776  49.8496446  71.8482472
  67.1734546  50.5983812  71.0589644  67.3907548  48.5197964  71.5695351
  67.6807307  48.2241130  70.5612765  67.3063181  47.5701875  72.5712030
  67.5422449  46.5281053  72.3555571  67.0520008  46.5923408  77.4488172
  66.9031506  45.3669984  77.4164368  66.8030447  47.3330885  78.5246075
  67.0889808  48.3016484  78.5093877  66.1614004  46.8181626  79.7346128
  66.4447070  45.7775421  79.8925548  66.6000363  47.6329243  80.9490142
  67.6743582  47.7861732  80.8468069  66.0883058  48.5927497  80.8785367
  66.3057350  47.0012220  82.2960127  66.1515316  47.7799721  83.0429200
  65.4020101  46.3980800  82.2088166  67.4525597  46.0997446  82.7589937
  67.2610298  44.9064640  83.0175007  68.6590479  46.6710014  82.8512323
  69.4522963  46.1228516  83.1518817  68.7709645  47.6477344  82.6197830
  64.6446061  46.8965933  79.5590910  64.0502012  47.9677842  79.7011717
  63.9980609  45.7740162  79.2440500  64.4777092  44.9347570  78.9513371
  62.5436840  45.7636445  79.2701497  62.1547931  46.3970422  78.4728603
  62.0132547  44.3332523  79.0649861  62.6491213  43.6752707  79.6572978
  60.9994572  44.3146011  79.4649446  61.9967146  43.8495612  77.5991719
  61.2728825  44.4569993  77.0558610  62.9911832  44.0116810  77.1834179
  61.6204101  42.3592327  77.4653820  61.2945192  42.0073470  78.4441928
  60.7932971  42.2851569  76.7593392  62.8051192  41.4841751  76.9686611
  63.6353630  41.6706403  77.6498559  62.4848956  40.4465043  77.0624443
  63.2532424  41.7490397  75.5390313  63.5504157  42.7104018  75.4520218
  64.0225890  41.1366333  75.3084578  62.4841879  41.5759028  74.9076219
  62.0926199  46.3450583  80.6051524  62.6840409  46.0649589  81.6495333
  61.0846383  47.2124213  80.5775584  60.6497245  47.4541856  79.6986389
  60.6391182  47.9003920  81.7800775  61.1739839  47.5411040  82.6592419
  60.8577051  49.4161698  81.6578841  60.7251324  49.7168889  80.6186095
  59.8638018  50.1477330  82.5228584  59.9960787  49.8478584  83.5624155
  60.0237971  51.2220911  82.4319912  58.8516476  49.9031158  82.2006658
  62.2839940  49.7386336  82.0673618  62.9783869  49.2113760  81.4132058
  62.4522466  50.8124178  81.9850320  62.4465917  49.4238962  83.0981882
  59.1850295  47.6017507  82.1158116  58.8433044  47.4150666  83.2803334
  58.3084124  47.5668859  81.1213787  58.4937251  47.9444684  80.2031249
  56.9845811  47.0232516  81.3899608  57.0862788  46.0604614  81.8907520
  56.1668298  47.9516636  82.2806453  55.3794753  47.3512260  82.7363282
  56.8343314  48.3245622  83.0574903  55.5590051  49.0986457  81.5579523
  56.3038961  49.8933811  81.5175302  55.3176499  48.7757456  80.5452419
  54.2996814  49.6179316  82.2384426  53.4604394  48.7914751  82.6798681
  54.1462489  50.8606904  82.3230709  56.2796693  46.7620498  80.0663185
  56.5625061  47.4117678  79.0558835  55.3816447  45.7844402  80.0746466
  55.2053779  45.2438550  80.9093903  54.6622637  45.4331003  78.8614025
  55.3119832  45.5670949  77.9965273  54.2088241  43.9833239  78.9081970
  55.0852149  43.3503195  78.7691144  53.7779293  43.7954236  79.8916212
  53.1931753  43.6702394  77.8495070  52.2981251  44.2622032  78.0407269
  53.6077379  43.9425342  76.8788909  52.8357440  42.2038849  77.8500675
  53.7501772  41.6235732  77.7269857  52.3766420  41.9587921  78.8078015
  51.8669868  41.8697748  76.7225654  50.9702512  42.4763795  76.8490429
  52.3435426  42.1199489  75.7747223  51.4965344  40.4340550  76.7253538
  51.0545422  40.2021314  77.6033937  50.8554569  40.2503222  75.9668277
  52.3272778  39.8717992  76.6077402  53.4678970  46.3567773  78.6775576
  52.6622072  46.5249304  79.5949024  53.3493229  46.9526284  77.4890982
  54.0068633  46.7237049  76.7574330  52.3659984  47.9970668  77.2323158
  51.7035776  48.0690911  78.0949342  53.0485718  49.3582864  76.9940785
  52.2811662  50.1296809  76.9297400  53.9983122  49.6869113  78.1190752
  54.7663273  48.9161508  78.1837427  54.4679141  50.6519510  77.9286200
  53.4479221  49.7304214  79.0589033  53.8387040  49.3399407  75.7019835
  54.3961537  48.4039331  75.6667629  53.1269948  49.3696239  74.8769451
  54.7968318  50.5008351  75.5817657  55.5091878  50.4715557  76.4062605
  55.3338849  50.4328861  74.6356917  54.2400285  51.4372470  75.6164450
  51.4354608  47.6596383  76.0726384  50.7129497  48.5347812  75.6010319
  51.4426323  46.4231757  75.5923991  52.0574298  45.7211384  75.9787498
  50.5673446  46.0444870  74.4984410  49.5515265  45.9525718  74.8828424
  50.5992902  46.8280888  73.7414424  50.9751781  44.7314429  73.8656393
  52.0708293  44.2113548  74.0556653  50.0534887  44.1600592  73.0939460
  49.0814417  44.4296973  73.1441372  50.4174601  43.0508609  72.2264359
  51.3646809  43.2757834  71.7362503  50.5713009  41.7331373  73.0161217
  51.3037374  41.1530930  72.4547087  50.9993355  42.0281388  73.9741721
  49.3269616  40.8848301  73.2553697  48.6049155  41.4916100  73.8017839
  48.9111204  40.6115587  72.2855770  49.6376781  39.6035133  74.0618357
  49.3492234  39.5558552  75.2831910  50.1732769  38.6433376  73.4692570
  49.3877147  42.9373911  71.1095285  48.1912056  43.1563650  71.3209112
  49.8834145  42.6608386  69.9118147  50.8842199  42.5971768  69.7916684
  49.0405905  42.4446548  68.7596909  47.9941127  42.5028236  69.0590232
  49.2466145  43.2088815  68.0102838  49.3059316  41.0807382  68.1583362
  50.0244997  40.2585266  68.7435593  48.7364593  40.8255059  66.9786435
  48.1527457  41.5045058  66.5113781  48.8921767  39.5102661  66.3675826
  48.5957449  38.7232489  67.0610026  48.0351003  39.4011444  65.1115908
  48.0286632  40.3631135  64.5990732  48.6019008  38.3260928  64.1740498
  48.6082214  37.3636870  64.6857476  47.9808160  38.2580544  63.2808961
  49.6197440  38.5920194  63.8887799  46.6787217  39.0724228  65.4728183
  46.1435031  39.0049278  64.6787239  50.3471873  39.2035239  66.0402748
  50.7685644  38.0466866  66.1485459  51.1362274  40.2112415  65.6564963
  50.7614724  41.1431396  65.5505534  52.5251340  39.9772161  65.2773858
  52.7095542  38.9068196  65.1860638  52.8268833  40.6409585  63.9346247
  52.6889718  41.7188825  64.0192393  53.8658842  40.4266597  63.6843185
  51.9270620  40.1027203  62.8493311  52.0415809  38.7724815  62.4245676
  52.7965050  38.1347463  62.8844403  51.2001315  38.2557730  61.4198481
  51.3001189  37.2202718  61.0945149  50.2260609  39.0813277  60.8412050
  49.3910459  38.5751089  59.8496979  49.5699532  37.6550075  59.6423210
  50.0976633  40.4131117  61.2569689  49.3470855  41.0624443  60.8063021
  50.9443674  40.9101127  62.2617575  50.8436257  41.9419711  62.5982383
  53.5171346  40.4285557  66.3493902  54.6330784  40.8485846  66.0290542
  53.1436948  40.3377243  67.6246119  52.1951446  40.1202319  67.8948874
  54.1216505  40.5560694  68.6687182  54.4226481  39.5634855  69.0037958
  54.9658802  41.0471133  68.1847230  53.6984828  41.3742124  69.8700046
  52.6266233  41.9816261  69.9105132  54.5850885  41.3828653  70.8492004
  55.4203727  40.8379396  70.6896523  54.4384941  42.0598634  72.1242043
  53.4088198  42.3271183  72.3617855  54.9774516  41.1443179  73.2357332
  55.9886201  40.8292444  72.9781171  55.0000276  41.8791737  74.5584638
  53.9890697  42.1941792  74.8169916  55.3839245  41.2181048  75.3354526
  55.6433728  42.7552882  74.4770266  54.1451024  39.8765507  73.3109739
  54.1953553  39.3511582  72.3572761  54.5329212  39.2329956  74.1006150
  53.1086878  40.1341549  73.5291150  55.1782657  43.3938394  72.0962053
  56.2093964  43.5521676  71.4319383  54.6729289  44.3602262  72.8534128
  53.8287544  44.1989040  73.3839258  55.2709799  45.6826452  72.8966440
  56.2265102  45.7186723  72.3734202  54.3360887  46.7269636  72.2804715
  53.4617958  46.8524788  72.9191867  55.0655008  48.0539767  72.1543593
  55.9397190  47.9293543  71.5153658  54.3981439  48.7957305  71.7155693
  55.3826204  48.3901154  73.1415511  53.8423519  46.2204389  70.9519525
  53.3025463  45.2846854  71.0971326  53.1755917  46.9585257  70.5061292
  54.6908428  46.0507511  70.2891025  55.6150883  46.0447356  74.3379996
  54.7556654  45.9766031  75.2229726  56.8663124  46.4650049  74.5653361
  57.4984276  46.5358983  73.7807955  57.3632869  46.8248151  75.8883414
  56.5498606  46.7253991  76.6070578  58.5307679  45.9357144  76.3422597
  59.3168706  46.1336413  75.6135850  58.8474328  46.2906237  77.3230057
  58.2647881  44.4409924  76.4064828  57.5376860  43.8733059  77.4614291
  57.1518706  44.5243990  78.2458548  57.3051577  42.5019510  77.5181350
  56.7173641  42.0694850  78.3278100  57.8263515  41.6806164  76.5193670
  57.6283744  40.3198108  76.5521578  57.1140291  40.0337573  77.3105917
  58.5610975  42.2138537  75.4778305  58.9669266  41.5675857  74.6995370
  58.7817881  43.5883650  75.4270327  59.3667573  44.0167123  74.6131349
  57.8535418  48.2614264  75.8862941  58.4259490  48.7296459  74.8981597
  57.6135512  48.9618276  76.9875554  56.8543860  48.7225422  77.6092547
  58.4398100  50.1068089  77.3199770  58.5453902  50.7523121  76.4480380
  57.8070381  50.9087776  78.4437101  56.8110151  51.1955005  78.1063271
  57.7214701  50.2404988  79.3005541  58.5742964  52.1391366  78.8426643
  59.5691297  51.8511728  79.1824942  58.6627505  52.8049539  77.9841975
  57.8398686  52.8592163  79.9713232  56.8586492  53.1577158  79.6022628
  57.7189917  52.1599422  80.7986707  58.5989225  54.0939782  80.4552439
  59.6590062  53.8404787  80.4474221  58.4104368  54.8880971  79.7327846
  58.2072524  54.5616537  81.8251316  58.3822315  53.8261025  82.4947930
  58.7506558  55.3768219  82.0707195  57.2250850  54.7970092  81.8324840
  59.7938910  49.5783027  77.7433807  59.8702462  48.6744146  78.5736031
  60.8593659  50.0867874  77.1402684  60.7526529  50.7903236  76.4235059
  62.1984585  49.6121229  77.4458019  62.1843248  49.0860216  78.4003263
  62.7241364  48.6569337  76.3675805  62.7527265  49.1722799  75.4075280
  63.7286876  48.3269042  76.6322644  62.0652011  47.7916619  76.2954117
  63.1251178  50.8039517  77.6000997  62.8364156  51.9068078  77.1306176
  64.2492405  50.5614500  78.2658947  64.4525653  49.6024062  78.5087802
  65.1879910  51.5917964  78.6811681  64.8508510  52.5642713  78.3223810
  65.2892590  51.6417961  80.2023170  64.2781241  51.8266743  80.5649814
  65.6108764  50.6483677  80.5149867  66.2182673  52.6684584  80.7706541
  67.2020819  52.5737221  80.3110515  65.8255263  53.6680369  80.5843762
  66.3354974  52.4415246  82.2696441  65.3536513  52.5883716  82.7196587
  66.6628469  51.4158535  82.4397632  67.2833833  53.3470238  82.9100724
  66.9074782  54.0484767  83.5319717  68.6046667  53.2958033  82.7326337
  69.1376261  52.3936050  81.9154026  68.5389335  51.7436015  81.4263601
  70.1389423  52.3620417  81.7870698  69.3968341  54.1548781  83.3634446
  68.9962039  54.8482982  83.9788827  70.3963155  54.1108915  83.2248776
  66.5467031  51.2910963  78.0804977  67.0012908  50.1435940  78.0942653
  67.1755356  52.3190169  77.5230116  66.6955613  53.1949918  77.3733719
  68.5565507  52.2017758  77.0714498  68.6894820  51.2673838  76.5261609
  68.9142870  53.3617293  76.1460015  68.0687997  53.5547932  75.4857161
  69.1118531  54.2468014  76.7507454  70.1341488  53.0732724  75.2979858
  71.2609375  53.0314354  75.7987791  69.9158072  52.8741101  74.0017754
  70.6921598  52.6774192  73.3863981  68.9745838  52.9204119  73.6383812
  69.4666756  52.1745246  78.2940008  69.4371197  53.0977143  79.1183244
  70.2382219  51.0933266  78.4406029  70.2336975  50.3426870  77.7648670
  71.0383840  50.9311605  79.6484522  70.4199394  51.0968803  80.5305873
  71.6136931  49.5087286  79.7126384  71.7656405  49.1745853  78.6863053
  72.5763651  49.5716922  80.2199827  70.7043951  48.4982149  80.4549544
  70.6471224  48.8104366  81.4977096  69.7133392  48.5538660  80.0046064
  71.2182378  47.0566776  80.3813079  72.2964316  47.0672201  80.5409510
  70.7398646  46.4800828  81.1730130  70.9110414  46.4183628  79.0318355
  69.8301130  46.2863136  78.9843251  71.2235042  47.1303183  78.2679079
  71.5856641  45.1019259  78.7930567  71.2959311  44.4419432  79.5005716
  71.3284782  44.7523774  77.8810418  72.5872946  45.2241470  78.8366148
  72.1281142  51.9936519  79.7190737  72.3751186  52.5684513  80.7875626
  72.7530146  52.3001672  78.5775568  72.5773942  51.7285083  77.7636386
  73.7182075  53.3911131  78.4626581  74.4065261  53.3683931  79.3075252
  74.5278397  53.2502854  77.1665762  75.0141265  52.2837251  77.2984309
  73.8882294  53.2173218  76.2845829  75.5959126  54.3400089  76.9839264
  75.0992306  55.3102699  76.9851004  76.6543107  54.3016214  78.1112457
  77.1517735  53.3317611  78.1104040  77.3911993  55.0874919  77.9454039
  76.1668620  54.4585206  79.0734707  76.2540973  54.2863067  75.5841200
  75.4919198  54.4285075  74.8179843  77.0016773  55.0753904  75.5030509
  76.7328770  53.3171485  75.4441151  73.0518202  54.7681010  78.4995688
  73.2161142  55.5218578  79.4727672  72.2852956  55.0929940  77.4389013
  72.0639423  54.3852804  76.7531582  71.8324679  56.4593619  77.1944288
  72.5887085  57.1904663  77.4802359  71.4969134  56.6553120  75.7041272
  71.5784957  57.7156822  75.4652557  72.4571351  55.8519379  74.8069854
  72.3757711  54.7913524  75.0449724  72.1955691  56.0101103  73.7607235
  73.4805703  56.1850034  74.9794625  70.1420987  56.2661254  75.4318702
  69.9531757  56.3956000  74.4995909  70.6443941  56.8655474  78.0583033
  70.3911520  58.0640218  78.1968012  69.9298904  55.9133902  78.6631323
  70.1695011  54.9419791  78.5251231  68.8034141  56.2294354  79.5254324
  68.5819222  55.3292011  80.0986852  69.1343692  57.0178002  80.2014864
  67.5435240  56.6848289  78.8157708  66.5057109  56.8559445  79.4744555
  67.5940472  56.9007221  77.5037591  68.4751362  56.9283753  77.0107917
  66.3765280  57.1425760  76.7512076  65.8676024  58.0238883  77.1415697
  66.7037028  57.3803134  75.2772091  66.7709304  56.4046031  74.7959928
  65.8752886  57.9416616  74.8451001  68.0090036  58.1479249  75.0576562
  67.8366189  59.1721753  75.3882549  68.7893245  57.6956001  75.6697026
  68.4476171  58.1525788  73.5973513  68.0887644  59.1206030  72.8882230
  69.1265685  57.1873219  73.1579561  65.4469454  55.9492381  76.9093936
  65.8840726  54.8284164  77.1768999  64.1530424  56.1976913  76.7844574
  63.8326669  57.1523590  76.7065578  63.1584610  55.1386545  76.8310398
  63.6324118  54.1818363  77.0500579  62.0941844  55.4174317  77.9059224
  61.3391748  54.6316529  77.8811970  62.7491036  55.4466648  79.2755024
  63.5039642  56.2325585  79.3011470  61.9936080  55.6443024  80.0359406
  63.2205528  54.4841474  79.4739903  61.4056480  56.7344588  77.6351269
  60.9228808  56.6986040  76.6585245  60.6553300  56.9176709  78.4042535
  62.1412091  57.5387669  77.6469266  62.5452130  54.9988934  75.4442238
  62.3392957  55.9973710  74.7429297  62.3005963  53.7541873  75.0304055
  62.4990355  52.9943005  75.6654592  61.7721141  53.4322716  73.7127160
  61.4334524  54.3298541  73.1952672  62.7962119  52.7027632  72.8164197
  62.2885705  52.3853184  71.9055804  63.9697247  53.5956966  72.4562703
  64.4781775  53.9131900  73.3666410  64.6664474  53.0440221  71.8251338
  63.6084172  54.4719854  71.9180544  63.2706834  51.4502951  73.5081989
  62.4208825  50.7938956  73.6954959  63.9934736  50.9362419  72.8746193
  63.7412626  51.7138208  74.4554108  60.5626566  52.5405529  73.9111634
  60.3631364  51.9700979  74.9833941  59.7595130  52.4063298  72.8563684
  59.7989728  53.0852958  72.1096774  58.7840148  51.3244694  72.7573764
  58.6189881  50.8768239  73.7374167  57.4467233  51.8158313  72.2148114
  57.5942578  52.2585625  71.2297619  56.7557113  50.9765896  72.1355900
  57.0327056  52.5641553  72.8906070  59.3591415  50.2428274  71.8540880
  59.7021365  50.5061877  70.6956607  59.4640483  49.0345371  72.3804550
  59.0989304  48.8846551  73.3101451  60.1099565  47.9181686  71.7040631
  60.6443239  48.2649332  70.8195830  61.1115664  47.2707475  72.6563906
  61.6031083  48.1472324  73.0785991  60.4638432  46.8204626  73.4085862
  62.1618248  46.2610133  72.2225519  61.6639039  45.3254246  71.9678964
  62.9239897  46.7574208  71.0379603  63.4225954  47.6928094  71.2920063
  63.6688464  46.0163631  70.7479213  62.2375641  46.9258965  70.2081795
  63.0966526  46.0390319  73.3953542  62.5304490  45.6566935  74.2446658
  63.8647179  45.3174673  73.1169276  63.5678284  46.9831178  73.6688396
  59.0308777  46.9321280  71.2674595  58.3122341  46.3886951  72.1132952
  58.8883880  46.7235055  69.9566546  59.3962252  47.3043553  69.3048768
  57.9719966  45.7194017  69.4211798  57.2683881  45.4061515  70.1924829
  57.1830362  46.3046194  68.2482418  56.7377646  47.2246957  68.6267812
  57.9266097  46.5470185  67.4890046  56.0932566  45.4275394  67.6319494
  56.5649069  44.6120914  67.0835960  55.4760631  45.0178456  68.4315275
  55.1917377  46.2667644  66.6510894  54.2138308  46.3743925  67.1203583
  55.6533542  47.2484914  66.5451564  55.0232597  45.6152875  65.2394400
  56.0153924  45.2646980  64.9550809  54.3640659  44.7595480  65.3852912
  54.4636532  46.5048557  64.1359609  55.0745578  47.2976401  64.0003579
  54.4013754  45.9770099  63.2771244  53.5441466  46.8294808  64.3990679
  58.7776512  44.4884383  69.0081168  59.7218379  44.5941244  68.2197711
  58.4240998  43.3282827  69.5581727  57.6382535  43.3196177  70.1925779
  59.1456736  42.0757543  69.3304079  60.0696765  42.2753871  68.7877621
  59.4961863  41.4070848  70.6660369  60.2321419  42.0507468  71.1478749
  58.5794187  41.3995657  71.2555967  60.0484620  39.9891039  70.5676112
  59.4103305  39.4107816  69.8994552  61.0571522  40.0343088  70.1569987
  60.0874682  39.3168867  71.9456680  60.5896166  39.9860235  72.6443826
  59.0634611  39.1469952  72.2783026  60.8389595  37.9734908  71.8917308
  60.2786177  37.3122253  71.2307878  61.8224263  38.1664957  71.4631968
  60.9984135  37.3186687  73.2394768  60.0872179  37.1393489  73.6365496
  61.4969098  36.4467085  73.1332369  61.5179826  37.9310683  73.8519420
  58.3002783  41.1413764  68.4634080  57.1505045  40.8469759  68.8065922
  58.8716802  40.6758486  67.3522942  59.8192498  40.9665628  67.1581385
  58.2062098  39.7976443  66.3928088  57.1912002  39.5524091  66.7054018
  58.1720792  40.4272626  64.9983638  59.1934772  40.6195898  64.6699479
  57.4924740  39.4954776  64.0148093  56.4708098  39.3030400  64.3423314
  57.4760908  39.9574950  63.0277063  58.0411058  38.5548775  63.9660894
  57.4912683  41.7852292  65.0486964  56.4703836  41.6378842  65.4010949
  58.0340013  42.4085184  65.7593658  57.4652046  42.4568007  63.7179055
  56.9221992  41.8342780  63.0067723  56.9685162  43.4229080  63.8075530
  58.4858176  42.6049101  63.3650421  58.9482046  38.4675613  66.3426904
  60.1249543  38.4217210  65.9557163  58.2732580  37.3838712  66.7157062
  57.3330608  37.4420302  67.0800495  58.9199594  36.0769263  66.6760663
  59.9740102  36.1818372  66.9331071  58.2694354  35.1200506  67.6685502
  57.2412199  34.9461971  67.3513008  58.8198115  34.1794595  67.6467614
  58.2756086  35.6771071  69.0811662  59.1218161  36.3600882  69.1558015
  57.3476267  36.2333740  69.2135244  58.3862770  34.6176072  70.1568811
  59.1963021  33.9391413  69.8892206  58.6217407  35.1092348  71.1007872
  57.1586109  33.8382513  70.3273634  57.2509590  32.8365691  70.2367870
  55.9487632  34.3469579  70.5963914  55.7669899  35.6690807  70.6952378
  56.5495413  36.2943870  70.5659882  54.8480789  36.0355904  70.8986407
  54.9060409  33.5255575  70.7611236  55.0361656  32.5271132  70.6818993
  53.9933226  33.9075161  70.9639823  58.8530746  35.5594376  65.2460869
  57.7651778  35.3279799  64.7119551  60.0122496  35.4215681  64.6088496
  60.8960536  35.6306546  65.0507461  60.0185037  35.0164490  63.2107099
  59.2576222  35.5672075  62.6576967  61.3755488  35.3103504  62.5933554
  62.1298495  34.9526123  63.2941785  61.5300923  34.8396421  61.6224537
  61.4929568  36.8142978  62.4496004  61.4186737  37.2607490  63.4411972
  62.8142356  37.2181304  61.8091610  62.8890422  36.7724037  60.8172786
  62.8602395  38.3037831  61.7234728  63.6405043  36.8676659  62.4276714
  60.2929499  37.3281893  61.6558555  59.3730682  37.0786728  62.1846832
  60.3659909  38.4101343  61.5455775  60.2824270  36.8629179  60.6702031
  59.6720659  33.5451945  63.0619148  58.9423869  33.1610730  62.1387126
  60.1687542  32.7106457  63.9760788  60.7267225  33.0819160  64.7316772
  59.9898251  31.2627725  63.8936549  60.2662450  30.9099227  62.9000815
  60.8747211  30.5617759  64.9247703  60.5629482  29.5184107  64.9725819
  61.9086132  30.6162440  64.5838887  60.7626613  31.1905322  66.3126861
  61.3371811  30.6289944  67.2756992  60.0902699  32.2474043  66.4490142
  58.5259780  30.8851381  64.0924261  58.1712404  29.7066058  64.0075750
  57.6763048  31.8740420  64.3453624  58.0827697  32.7920185  64.4558375
  56.2374624  31.7315122  64.5141573  55.9447186  30.7199472  64.7954691
  55.7938524  32.6916130  65.6148896  56.2889560  33.6480214  65.4467953
  54.3031848  32.8954150  65.6339429  53.8073763  31.9394478  65.8024670
  54.0406390  33.5864750  66.4349453  53.9801358  33.3081685  64.6782367
  56.2340167  32.1774910  66.8732421  55.9611210  32.7727526  67.5752334
  55.4497899  32.0049375  63.2341457  54.2208134  31.8509612  63.2244489
  56.1182429  32.4028650  62.1598299  57.1279548  32.3995989  62.1837169
  55.4562927  32.8972198  60.9569869  54.3745225  32.8435185  61.0794150
  55.8477623  34.3551002  60.6982490  56.9182028  34.3662668  60.4929890
  55.3046590  34.6783560  59.8101924  55.5410602  35.3058367  61.8575862
  56.0503203  34.9294550  62.7447682  55.9369555  36.2885810  61.6015009
  54.0341237  35.4187502  62.1412461  53.2370918  35.3256148  61.1676389
  53.6560739  35.5997850  63.3300243  55.8439951  31.9952616  59.7928923
  56.9851678  32.0431447  59.3190896  54.8949662  31.1819838  59.3180656
  53.9961817  31.0884244  59.7692114  55.1879932  30.3228392  58.1717634
  56.0332828  29.6704650  58.3908353  53.9660007  29.4492558  57.8392994
  54.1816585  28.8695538  56.9417819  53.6449840  28.4939621  59.0014901
  53.4287493  29.0729891  59.8993041  52.7775002  27.8862935  58.7439830
  54.5009145  27.8447390  59.1858620  52.8233308  30.2715992  57.5878900
  52.0681947  29.7157910  57.3818631  55.6441663  31.1451362  56.9629827
  56.5251061  30.7195642  56.2120769  55.1067894  32.3554993  56.8025575
  54.4529582  32.6803037  57.5004874  55.3645265  33.2082841  55.6450175
  55.7034339  32.6039384  54.8035859  54.0804812  33.9400166  55.2369472
  53.8064567  34.5896468  56.0682055  54.3239596  34.5484613  54.3659631
  52.9222478  33.0302637  54.9068410  52.6288648  32.4777225  55.7994358
  52.0958657  33.6635916  54.5842150  53.2688552  32.0629890  53.8109077
  53.7145113  32.5291924  52.7403288  53.1214114  30.8384909  54.0278469
  56.4861177  34.2394194  55.8693521  56.5378469  35.2509171  55.1500917
  57.3797436  34.0085739  56.8370499  57.3114600  33.2108160  57.4526951
  58.4890148  34.9258646  57.0201701  59.2351973  34.4378582  57.6471953
  58.9203325  35.1390493  56.0421022  58.0729006  36.2351500  57.6737637
  57.0387012  36.3193840  58.3439609  58.8946606  37.2658614  57.4810395
  59.7386549  37.1812031  56.9327640  58.6007655  38.5581246  58.1103489
  58.6082372  38.4566891  59.1955928  59.6144400  39.6350239  57.7124868
  59.5682510  39.8085638  56.6373823  59.2751439  40.9141206  58.4442189
  59.3215792  40.7414760  59.5194577  59.9894763  41.6904965  58.1702297
  58.2694534  41.2337013  58.1711686  61.0210316  39.2066555  58.0425470
  61.2581476  38.2896389  57.5031413  61.7186257  39.9910229  57.7488977
  61.1051689  39.0290177  59.1146788  57.1970000  38.9863796  57.7067973
  56.8895506  39.0223472  56.4979238  56.3144004  39.3131656  58.6586449
  56.5280360  39.2335616  60.1131500  56.9991954  40.1504553  60.4672897
  57.1689762  38.3831130  60.3455973  55.1361122  39.0609600  60.6406666
  55.0673843  39.4807894  61.6442197  54.8826883  38.0013082  60.6725392
  54.2512158  39.7936620  59.6794424  54.2546926  40.8560216  59.9233252
  53.2243346  39.4284882  59.6632299  54.9051695  39.5715106  58.3161319
  54.5125060  38.6900632  57.8092155  54.7447885  40.7898708  57.4132465
  55.3942686  41.8198395  57.6054133  53.8330075  40.6716322  56.4431712
  53.2941400  39.8241557  56.3359106  53.6361813  41.7442528  55.4730199
  54.5363559  41.8620244  54.8697665  52.4628634  41.4291623  54.5437959
  51.5898789  41.9745070  54.9023994  52.7204439  41.7746771  53.5426107
  52.1707042  40.0458322  54.5041755  51.4310783  39.8918378  53.9118589
  53.4080342  43.0828731  56.1615681  54.0220223  44.0861747  55.7894210
  52.5251362  43.1239910  57.1679466  52.0074535  42.3034493  57.4486872
  52.2638060  44.3833764  57.8687304  51.8419639  45.1193490  57.1842651
  51.2897830  44.1809231  59.0291553  51.8391890  44.2519248  59.9678842
  50.2010151  45.2315417  59.0016009  49.6508374  45.1608514  58.0633008
  49.5181544  45.0698348  59.8356580  50.6487033  46.2217731  59.0859664
  50.7010899  42.8793666  58.9566293  50.0916729  42.7625452  59.6891346
  53.5425546  44.9980088  58.4107801  53.7022208  46.2220072  58.3951375
  54.4576787  44.1721299  58.9222651  54.3189339  43.1723783  58.9589518
  55.6694436  44.7229975  59.5124419  55.3949307  45.5558054  60.1598775
  56.3778205  43.6675740  60.3511317  56.6670416  42.8311157  59.7149016
  57.2678955  44.1017964  60.8064532  55.7062710  43.3133087  61.1331909
  56.5998278  45.2703409  58.4418582  57.2259535  46.3158337  58.6435940
  56.7019904  44.5799211  57.2964062  56.2448488  43.6860014  57.1867322
  57.5373295  45.0713846  56.1994622  58.5466314  45.3118066  56.5335373
  57.6073695  44.0472292  55.0498066  56.6130508  43.9259158  54.6200233
  58.5837389  44.5326745  53.9576826  59.5784419  44.6537825  54.3866341
  58.6227530  43.7991625  53.1523635  58.2406061  45.4884327  53.5615953
  57.9940255  42.6527687  55.5555091  58.9906124  42.7236156  55.9912797
  57.2791119  42.3714205  56.3287110  57.9945035  41.5974564  54.4564437
  58.7095665  41.8779001  53.6830511  58.2762192  40.6327527  54.8784415
  56.9980658  41.5257067  54.0204806  57.0111021  46.4065306  55.7003632
  57.7579252  47.3860631  55.5821922  55.7152041  46.4668908  55.3968715
  55.1189771  45.6534810  55.4514356  55.1394921  47.7143934  54.9092581
  55.6834409  48.0590244  54.0297989  53.6784091  47.4980280  54.5252070
  53.6347318  46.5736982  53.9491810  53.1208404  47.3737100  55.4535185
  53.0642796  48.6334703  53.7115850  53.1548183  49.5579377  54.2819039
  53.6160483  48.7285959  52.7763821  51.5880198  48.3642210  53.4076399
  51.0282131  48.3598467  54.3428919  51.2086510  49.1557884  52.7614204
  51.3921112  47.0782234  52.7380551  51.6253306  47.0325782  51.7564113
  50.9341378  45.9802997  53.3333794  50.6053092  46.0035027  54.6218291
  50.7040778  46.8588687  55.1497436  50.2583327  45.1656511  55.0664768
  50.8035594  44.8593929  52.6382801  51.0523962  44.8438354  51.6595369
  50.4558171  44.0259408  53.0905318  55.2650177  48.8235908  55.9481529
  55.6055840  49.9650045  55.6131345  55.0009238  48.5122517  57.2202317
  54.6891516  47.5900822  57.4894915  55.0770182  49.5465371  58.2507147
  54.5054815  50.4202361  57.9375135  54.5019087  49.0343263  59.5748110
  53.4610277  48.7694074  59.3891120  55.0625412  48.1381139  59.8405075
  54.5742505  50.0398165  60.7243645  55.6111820  50.3613260  60.8218605
  53.9535757  50.8938178  60.4531748  54.0891316  49.4582944  62.0655672
  53.7421933  48.2454282  62.1308006  54.0571793  50.2168479  63.0637734
  56.5103620  50.0442314  58.4329425  56.7546350  51.2546985  58.4860648
  57.4805424  49.1314978  58.5254872  57.2910860  48.1414364  58.5886052
  58.8657260  49.5785171  58.6266123  58.9990089  50.2050370  59.5085463
  59.8319873  48.3805057  58.6973351  59.6741154  47.7467936  57.8246462
  61.2820134  48.8603776  58.7221047  61.4407831  49.4938170  59.5948288
  61.9492327  47.9999028  58.7721262  61.4921664  49.4303151  57.8170600
  59.5554016  47.5130162  59.9307532  59.6952571  48.1452315  60.8075913
  58.5141839  47.1954786  59.8747619  60.4563042  46.2853325  60.0400608
  61.4977245  46.6021144  60.0965667  60.1986628  45.7237533  60.9380302
  60.3166527  45.6523623  59.1637355  59.2002626  50.4974105  57.4586567
  59.6913489  51.6174569  57.6436548  58.9154604  50.0475659  56.2334561
  58.4157492  49.1822957  56.0861623  59.3891912  50.7815158  55.0628790
  60.4655881  50.9383308  55.1327218  59.0933687  49.9934739  53.7928325
  59.4502909  48.9712560  53.9184362  58.0165330  49.9836360  53.6242260
  59.7375003  50.5835023  52.6841111  59.5416316  50.0762000  51.8929855
  58.7635390  52.1637049  54.9907502  59.4412913  53.1444158  54.6726197
  57.4718517  52.2613817  55.2840849  56.9304336  51.4407674  55.5155106
  56.7879844  53.5473247  55.2283173  56.9148786  54.0054362  54.2474345
  55.3040649  53.3305343  55.4747679  54.8837370  52.9245156  54.5546741
  55.2248156  52.5877564  56.2685566  54.5408227  54.5751834  55.8712208
  54.8580253  54.9083509  56.8593922  54.8290492  55.6471160  54.8674035
  54.5116726  55.3148381  53.8789895  54.2867295  56.5533808  55.1369851
  55.8989680  55.8549550  54.8540897  53.0637147  54.2542414  55.8812775
  52.8695420  53.4566755  56.5984142  52.5002143  55.1429133  56.1655854
  52.7547489  53.9313785  54.8870951  57.3609316  54.5297294  56.2412608
  57.6686476  55.6792464  55.9107360  57.5241441  54.0890763  57.4875302
  57.2684388  53.1493864  57.7552934  58.0058798  54.9960916  58.5228543
  57.4468719  55.9312891  58.4909983  57.8170154  54.3599395  59.9027202
  58.3004795  53.3837347  59.8654914  58.3021471  54.9764482  60.6594660
  56.3429993  54.1841286  60.2584941  55.8800015  53.5204409  59.5282527
  56.1959029  53.5928113  61.6398697  56.6582872  54.2562107  62.3707601
  55.1379798  53.4754004  61.8746340  56.6850954  52.6193130  61.6729189
  55.6197667  55.5155406  60.1872362  55.6954097  55.9170709  59.1767161
  54.5698991  55.3734871  60.4435562  56.0735380  56.2141769  60.8901572
  59.4613885  55.3913097  58.3001817  59.8880544  56.4608101  58.7507436
  60.2458027  54.5527854  57.6210127  59.9544670  53.6168731  57.3775152
  61.6073051  54.9617322  57.2903246  62.1357830  55.2544290  58.1975947
  62.3695233  53.8055974  56.6304136  61.6858286  53.2962748  55.9512588
  63.1970725  54.2295965  56.0616542  62.9124858  52.8057553  57.6506241
  63.0135451  53.3248979  58.6037132  62.1821431  52.0028062  57.7504953
  64.2375046  52.2288670  57.2533936  64.0823185  51.4849884  56.4719457
  64.8740882  53.0275866  56.8727261  64.9106117  51.5712504  58.4547813
  64.1286973  51.1297820  59.0726940  65.5640819  50.7838697  58.0791385
  65.7068025  52.5292726  59.2714933  65.1013863  53.2587224  59.6200244
  66.1271878  52.0405144  60.0489838  66.4316668  52.9381408  58.6992192
  61.6449667  56.1982498  56.4047147  62.6912040  56.8505790  56.3204287
  60.5392311  56.5519349  55.7754321  59.7069488  55.9815917  55.8214113
  60.5070431  57.7503873  54.9601150  61.4600627  58.2743325  55.0331508
  60.2591653  57.3895193  53.4961284  59.3030608  56.8671343  53.4633054
  60.1765852  58.3317453  52.9543806  61.3337634  56.5233377  52.8478364
  62.2555465  57.1049779  52.8372918  61.4874180  55.6103369  53.4230921
  60.9443366  56.1638250  51.4199196  60.8543014  57.0899700  50.5681684
  60.6920195  54.9646988  51.1611406  59.4523277  58.7556900  55.3951770
  59.6402189  59.9544300  55.1758868  58.3490843  58.3046787  55.9855089
  58.1891446  57.3092102  56.0451845  57.3464052  59.1992612  56.5442126
  57.1127362  59.9902679  55.8316072  56.0706695  58.4262315  56.8485802
  56.3626576  57.3904564  56.6753406  55.8497810  58.5688451  57.9063938
  54.8425733  58.7460209  56.0308275  54.8563722  58.1874341  55.0949369
  53.6326245  58.3476858  56.8352043  53.6178879  58.9062355  57.7711016
  52.7290938  58.5682366  56.2667937  53.6742353  57.2799745  57.0505218
  54.8387989  60.2083796  55.6725751  55.7307775  60.4429846  55.0916843
  53.9511688  60.4361067  55.0823595  54.8317147  60.8062434  56.5839519
  57.8766571  59.8322691  57.8263568  57.8395288  59.2137622  58.8943608
  58.3452392  61.0700526  57.7591496  58.3565411  61.5611223  56.8766405
  58.9092466  61.7329621  58.9243688  58.7597690  61.1155706  59.8101359
  60.4076557  61.9590910  58.7342905  60.8191698  61.0443973  58.3075696
  60.5954016  62.7920059  58.0567182  61.1016665  62.2351797  60.0386314
  61.5823780  61.3125022  60.7094046  61.1187775  63.5119454  60.4418965
  61.5709073  63.7578323  61.3109293  60.6794768  64.2232553  59.8751921
  58.1923687  63.0534341  59.1856690  58.0959021  63.8987840  58.2981856
  57.6889814  63.2327759  60.3923267  57.7427876  62.5132556  61.0990761
  56.9810393  64.4638947  60.7131765  57.5620743  65.3274861  60.3895914
  55.6253852  64.4851301  59.9897664  55.7677800  64.4342885  58.9103045
  55.0296781  63.6332405  60.3176645  54.8026285  65.7134586  60.2574107
  54.0951202  65.9025862  61.4269627  53.4722730  67.0674158  61.3787494
  52.8585520  67.4024833  62.2149163  53.7461139  67.6405365  60.2199198
  53.4128379  68.5413946  59.9076994  54.5667311  66.8084596  59.4949167
  54.8945211  67.1002927  58.4971751  56.8178270  64.5685774  62.2257852
  56.8009027  63.5372121  62.9099615  56.7322263  65.7815896  62.7922797
  57.0496238  67.0728818  62.1604858  56.1977214  67.4098806  61.5698976
  57.9182307  66.9586309  61.5119739  57.3276030  67.9709395  63.3422650
  57.0210214  68.9885379  63.1001901  58.3952048  67.9561333  63.5616018
  56.5517217  67.4296773  64.4705279  55.5140011  67.7627132  64.4525798
  57.0001556  67.6911552  65.4289829  56.6159300  65.9099878  64.2592763
  57.5240194  65.4819748  64.6838665  55.4042129  65.2295869  64.8683922
  55.4030285  64.9806348  66.0826399  54.3566859  64.9520289  64.0936382
  54.3599656  65.2281168  63.1221115  53.1490329  64.3504142  64.6351211
  53.2520952  64.2008985  65.7098874  51.9610541  65.2696698  64.3833303
  51.8783765  65.4127275  63.3059269  51.0391538  64.8288079  64.7625936
  52.1550173  66.6157724  65.0346775  52.3067220  67.6227864  64.3487004
  52.1952876  66.6366793  66.3704433  52.3233263  67.5135032  66.8550934
  52.0974951  65.7755585  66.8891034  52.9149813  62.9517537  64.0830191
  51.7825743  62.4624193  64.0661642  53.9857919  62.2977838  63.6378966
  54.8378402  62.8248134  63.5100183  53.9881064  60.8834800  63.2837323
  53.0203609  60.4391464  63.5164028  54.3070453  60.6667446  61.7919667
  55.2817508  61.1004513  61.5684760  54.3279194  59.1759036  61.4684880
  53.3533416  58.7415609  61.6912997  54.5543677  59.0360693  60.4114789
  55.0909821  58.6834499  62.0712515  53.2683148  61.3938780  60.9261262
  52.2892069  61.0069222  61.2084625  53.3264621  62.4527180  61.1782697
  53.4671088  61.2204715  59.4519620  53.4086284  60.1618518  59.1989714
  52.6917116  61.7655238  58.9136531  54.4458852  61.6076457  59.1687790
  55.0145187  60.1821423  64.1654422  56.1557031  60.6392342  64.2756747
  54.6067567  59.0749915  64.7941982  53.6565742  58.7484967  64.6909807
  55.4983186  58.3395622  65.6864505  55.8919308  58.9776546  66.4776564
  54.7485692  57.1674614  66.3298736  53.8375575  57.5330800  66.8036668
  54.3830790  56.1331385  65.2405426  55.2936739  55.7666958  64.7665830
  53.8497554  55.2985114  65.6955854  53.7477500  56.6039168  64.4903250
  55.5923537  56.5479657  67.3928237  55.8198047  57.2917829  68.1564363
  55.0537378  55.7157354  67.8460180  56.5209001  56.1831102  66.9537531
  56.7154975  57.8495138  64.9141888  56.5919632  57.3048645  63.8080291
  57.8965786  58.0132768  65.5098926  57.9267462  58.4063302  66.4397842
  59.1610657  57.6951651  64.8510889  59.0714966  57.8574104  63.7769599
  60.2786714  58.5913662  65.3895283  60.0847666  58.7457230  66.4509774
  61.2151959  58.0472628  65.2671625  60.3797130  59.9242218  64.6996171
  60.5882809  59.7443760  63.6449817  59.4192423  60.4300289  64.7983965
  61.4633340  60.7879801  65.2844515  61.5063907  60.6359950  66.3629438
  62.4218570  60.5177060  64.8414108  61.1615785  62.2589920  64.9885317
  60.4401374  62.6028500  65.7297368  62.0918918  62.8154683  65.1023315
  60.6073720  62.4853130  63.6061834  59.7450953  61.9700983  63.5006731
  60.4295592  63.4704272  63.4718974  61.2759028  62.1671460  62.9192078
  59.5620505  56.2300706  65.0198885  59.4602308  55.6593435  66.1103001
  60.0186118  55.6326781  63.9192306  59.8482431  56.0754751  63.0276002
  60.7322740  54.3585962  63.9344201  60.3808594  53.7523479  64.7693273
  60.4965156  53.5881055  62.6394286  59.4223125  53.4032900  62.6339401
  60.7563324  54.2424806  61.8073297  61.2392625  52.2666249  62.4965124
  62.3062133  52.4378293  62.6393619  60.7420816  51.2736694  63.5352253
  59.6752271  51.1015939  63.3927111  61.2794513  50.3318004  63.4246937
  60.9146569  51.6748064  64.5339282  61.0516891  51.7304309  61.0887677
  61.4467946  52.4485587  60.3702389  61.5832243  50.7843892  60.9859241
  59.9901729  51.5727927  60.8978946  62.2160875  54.6491169  64.1156971
  62.8405849  55.2578706  63.2411442  62.7813048  54.2076675  65.2452341
  62.2235072  53.6789630  65.9005452  64.1673643  54.5060134  65.5981616
  64.4791063  55.4387894  65.1282200  64.3040375  54.6533274  67.1160859
  64.0945277  53.6655755  67.5266355  65.3258895  54.9401557  67.3643761
  63.3346452  55.6654982  67.7103138  62.3294285  55.4292424  67.3612819
  63.3633800  55.6337972  69.2172881  64.3682361  55.8704269  69.5671015
  62.6601384  56.3681117  69.6101420  63.0825713  54.6398989  69.5657319
  63.6808797  57.0322957  67.2012407  63.6043969  57.0457825  66.1140113
  62.9906483  57.7631413  67.6226034  64.6997077  57.2832082  67.4964211
  65.1648244  53.4580685  65.1122915  66.3166976  53.8137543  64.8377272
  64.7686672  52.1849844  65.0024126  63.8073292  51.9335991  65.1833379
  65.7117979  51.1198184  64.6624834  66.2670275  51.3984128  63.7668247
  66.7146544  50.8775203  65.8084466  66.8101762  51.8126335  66.3602963
  66.2868113  50.1145379  66.4587605  68.1057893  50.4208717  65.3274541
  68.3153794  50.1761697  64.1166346  69.0030046  50.3083474  66.1932589
  64.9372626  49.8446220  64.3590575  63.7959755  49.6721548  64.7947579
  65.5866869  48.9475575  63.6168902  66.4681725  49.2269318  63.2106484
  65.0863501  47.6095356  63.3287316  64.3135611  47.3229916  64.0420259
  64.5107825  47.4961493  61.9098914  65.2881604  47.7467633  61.1881051
  64.0214730  46.0866945  61.6549103  63.2436958  45.8355091  62.3760687
  63.6157154  46.0194330  60.6454861  64.8521387  45.3886976  61.7592956
  63.3910930  48.4845264  61.7068837  63.7682206  49.4966816  61.8532356
  62.9982608  48.3865050  60.6948688  62.5959183  48.2861773  62.4255322
  66.2506991  46.6435669  63.5164949  67.2746142  46.7595058  62.8309658
  66.0960382  45.7027858  64.4455223  65.1920794  45.6285500  64.8898724
  67.1608324  44.8094107  64.8899469  68.0641789  44.9065080  64.2877539
  67.5047604  45.0435204  66.3713888  66.6073354  44.8868790  66.9698805
  68.5930549  44.0868452  66.8307075  69.4910109  44.2432210  66.2329432
  68.8197155  44.2707830  67.8808944  68.2499405  43.0595459  66.7081191
  67.8876391  46.5130309  66.6090266  68.8330708  46.6805887  66.0930964
  67.1096016  47.1208845  66.1472137  68.0348759  46.9072069  68.0910400
  68.8131118  46.3000545  68.5534410  68.3061933  47.9605002  68.1621686
  67.0896425  46.7403480  68.6075590  66.7216914  43.3624777  64.6607242
  65.6633044  42.9390890  65.1450660  67.5500391  42.6001062  63.9515452
  68.3739553  43.0279992  63.5538407  67.3040197  41.1909144  63.6789908
  66.2779180  40.9315674  63.9396700  67.5169136  40.9067528  62.1934022
  66.8358184  41.5001687  61.5834299  68.5460332  41.1475910  61.9269254
  67.2998686  39.4823748  61.8119998  68.0349251  38.8551218  60.8289802
  67.6161668  37.6090320  60.7010321  68.0776761  36.9419391  59.9729557
  66.6336597  37.4073184  61.5602104  66.1193809  36.5470009  61.6845926
  66.4165409  38.5646517  62.2681858  65.6395853  38.5987141  63.0319141
  68.2386533  40.3550646  64.5515824  69.4588270  40.5489815  64.5234870
  67.6646485  39.4458964  65.3433606  66.6712866  39.2771702  65.2736255
  68.4289216  38.6945685  66.3445110  69.4500698  38.5527520  65.9906132
  68.4740341  39.4149805  67.6806762  67.4904797  39.8293182  67.9021380
  68.8712147  38.4343888  68.7790024  69.8549352  38.0199574  68.5584571
  68.9028024  38.9539781  69.7366705  68.1401965  37.6273512  68.8280266
  69.4295308  40.4842390  67.6170086  69.4574785  40.9391241  68.4619339
  67.7830356  37.3278681  66.5134519  66.7943001  37.2025834  67.2417951
  68.3537397  36.3230059  65.8468411  68.9962416  36.5407536  65.0985921
  68.0382064  34.9202712  66.1021684  68.4001839  34.3035127  65.2795624
  68.7112789  34.4479052  67.4047499  69.3792818  35.2485051  67.7224150
  67.9180900  34.3232642  68.1419175  69.5188894  33.1151585  67.2783197
  69.9210930  33.0914366  66.2655165  70.3398278  33.1650707  67.9936295
  68.6888488  31.8324031  67.5341014  68.0674752  31.7072797  68.6213181
  68.6706872  30.9453695  66.6415665  66.5355717  34.6781523  66.1633456
  65.9473849  34.6079523  67.2508148  65.9055804  34.5554242  65.0028381
  66.4039091  34.7231555  64.1404959  64.4828709  34.2734653  64.9321414
  64.1560779  34.2863149  63.8923624  64.1767269  32.8949162  65.5242666
  64.7613309  32.7651496  66.4350344  63.1148199  32.8390715  65.7637138
  64.5199352  31.7609577  64.5576312  63.7916587  31.5172710  63.5801512
  65.6252638  31.0624672  64.8241093  65.8974077  30.3025754  64.2169834
  66.1846694  31.2968795  65.6317089  63.6514569  35.3529701  65.6124921
  62.4899677  35.1186119  65.9678285  64.2234280  36.5404287  65.7903320
  65.2023200  36.6614251  65.5730080  63.4939724  37.6722169  66.3350916
  62.4251302  37.4601779  66.3083517  63.9043330  37.9550217  67.7960035
  64.9929301  37.9064628  67.8224169  63.5812208  38.9732815  68.0124416
  63.3304875  37.0102364  68.8369872  62.6249958  37.5557205  69.4637483
  62.8121683  36.1950872  68.3320328  64.4505138  36.4395695  69.7083249
  65.0298405  35.7466136  69.0981679  65.0870641  37.2674334  70.0206461
  63.9199358  35.7091661  70.9453988  63.0953068  35.0618972  70.6468513
  64.7213156  35.1038026  71.3689845  63.4406111  36.6856529  71.9680162
  62.6977373  37.2464069  71.5758514  63.0951690  36.1858565  72.7748454
  64.2046847  37.2852457  72.2451064  63.7448506  38.9035460  65.4693499
  64.8392695  39.0962353  64.9296137  62.7227120  39.7471584  65.3597285
  61.8240474  39.4612189  65.7213081  62.8276636  41.0576944  64.7217359
  63.8748109  41.2773404  64.5135596  62.0472285  41.0958429  63.4021706
  62.3797475  40.1814017  62.9109195  60.9937561  41.0033641  63.6662608
  62.2318198  42.2771443  62.4553902  61.9945862  43.1987723  62.9868249
  63.6708182  42.3365433  61.9525140  63.9086548  41.4153856  61.4205356
  63.7858159  43.1850608  61.2780555  64.3476447  42.4516851  62.7991241
  61.2463928  42.1554716  61.3018415  60.2283755  42.1558230  61.6913798
  61.3753042  42.9982746  60.6227493  61.4287775  41.2250568  60.7641028
  62.2784801  42.0849975  65.6943586  61.1198695  41.9950544  66.0920503
  63.0952531  43.0462146  66.0891960  64.0332758  43.0842131  65.7166792
  62.7033039  44.0430293  67.0754502  61.7544222  43.7554052  67.5282139
  63.7560861  44.1632084  68.1804288  64.6969436  44.2095945  67.6320359
  63.5893080  45.1092696  68.6954563  63.8189405  43.0304958  69.2041946
  62.9876371  43.0234653  70.3263043  62.2696517  43.8343845  70.4488047
  63.0627751  41.9949005  71.2914498  62.3978936  42.0108836  72.1550348
  63.9868209  40.9590034  71.1408723  64.0694505  39.9366320  72.0870832
  63.4429646  40.0403406  72.8070552  64.8287338  40.9559200  70.0322217
  65.5497917  40.1492682  69.8999762  64.7496945  41.9960716  69.0793043
  65.4242012  42.0032213  68.2230978  62.5180353  45.3824974  66.3677428
  63.4461198  45.8834371  65.7247564  61.3263012  45.9577559  66.4689234
  60.5600749  45.4372560  66.8715107  61.0686223  47.3162951  65.9972733
  61.8219757  47.5864656  65.2572966  59.6893817  47.4427618  65.3574159
  59.0249125  46.9224615  66.0472475  59.4346450  48.5023994  65.3379872
  59.5304086  46.8580180  63.9630106  60.1028956  47.4671514  63.2634993
  60.0272695  45.4181036  63.9069419  59.4549042  44.8082224  64.6058995
  59.9001105  45.0283892  62.8969647  61.0826058  45.3865497  64.1778109
  58.0929372  46.9214356  63.5463571  57.7610664  47.9596720  63.5412126
  57.9850445  46.5010875  62.5464731  57.4852422  46.3497592  64.2477783
  61.1741208  48.2593156  67.1851956  60.4535765  48.0899649  68.1784118
  62.0696856  49.2380087  67.0941766  62.6337630  49.3197135  66.2603659
  62.2932368  50.1869573  68.1737319  61.8232838  49.8455214  69.0960468
  63.7865685  50.3993125  68.4351373  64.2200137  50.9720707  67.6152760
  63.9728475  51.1531533  69.7282383  63.5400329  50.5807619  70.5486897
  65.0367376  51.3030288  69.9120201  63.4765756  52.1212088  69.6597945
  64.5085726  49.0833354  68.4867165  64.3878907  48.5645889  67.5356960
  65.5683527  49.2568365  68.6734335  64.0942049  48.4721610  69.2885058
  61.6295756  51.4939617  67.7839625  62.0772704  52.1574337  66.8427781
  60.5793466  51.8822289  68.5112986  60.2763405  51.2818296  69.2648285
  59.8413401  53.1177755  68.2719140  60.1648109  53.5530414  67.3263932
  58.3382866  52.8673801  68.2043111  58.0197090  52.3644615  69.1173721
  57.7935548  53.8054792  68.0978346  57.9155625  51.9962403  67.0668078
  57.4477378  52.5556441  65.8913315  57.4036231  53.6410696  65.8018604
  57.0416990  51.7627466  64.8446453  56.6778062  52.2150012  63.9220681
  57.0957380  50.3967788  64.9643683  56.7692000  49.7653355  64.1380801
  57.5639924  49.8208190  66.1321171  57.6171489  48.7360797  66.2249356
  57.9633633  50.6216798  67.1784530  58.3208366  50.1708439  68.1042282
  60.0966530  54.1335268  69.3748486  60.5100719  53.7877128  70.4808886
  59.8112729  55.4004518  69.0777508  59.5818349  55.7146282  68.1456828
  59.8824185  56.3874482  70.1379703  60.8172691  56.2560143  70.6828359
  59.8283360  57.8185011  69.5974706  60.1969607  58.4708526  70.3890845
  60.5073343  57.8619622  68.7459000  58.4660091  58.2707199  69.1725749
  58.2476635  57.7071436  68.2654873  57.7548788  57.9947527  69.9511858
  58.3488019  59.7661988  68.8831560  58.4541542  60.5889664  69.8237602
  58.1106617  60.1132348  67.7056955  58.7322228  56.1247020  71.0888195
  57.6881525  55.6032116  70.6977620  58.9488784  56.4371759  72.3553038
  59.8176783  56.8733975  72.6291591  57.9846233  56.1175372  73.3892092
  57.3030095  55.3477982  73.0272651  58.6811050  55.6009107  74.6445360
  59.1460740  54.6363834  74.4405995  59.4413720  56.3066599  74.9792182
  57.7517639  55.3926944  75.7997348  56.9430277  54.2724637  75.8676685
  56.9829030  53.5346229  75.0663566  56.0852479  54.0830532  76.9446283
  55.4554924  53.1944282  76.9876904  56.0299665  55.0179108  77.9586333
  55.3651154  54.8714433  78.8098796  56.8199446  56.1382105  77.8896380
  56.7705159  56.8846570  78.6824019  57.6769364  56.3219519  76.8186982
  58.3061398  57.2107001  76.7704321  57.1429325  57.3430453  73.7133473
  57.6744452  58.4350089  73.9291848  55.8325338  57.1558763  73.7281794
  55.4641932  56.3029144  73.3320979  54.8944367  58.1399587  74.2357664
  55.4450300  58.9314475  74.7441873  54.0700343  58.7625926  73.1150195
  53.5905092  57.9196950  72.6173464  53.3079904  59.4033892  73.5586058
  54.8778043  59.5636062  72.0948460  55.9005265  59.6852463  72.4516987
  54.8889765  58.8258091  70.7822350  53.8665629  58.7041858  70.4244962
  55.4642164  59.3933452  70.0507279  55.3442484  57.8450660  70.9199692
  54.2868981  60.9553739  71.9387770  54.3114956  61.4708652  72.8988620
  54.8695599  61.5183798  71.2096468  53.2553073  60.8763090  71.5957494
  54.0186227  57.4295892  75.2546530  53.5987652  56.2870044  75.0341658
  53.7682832  58.0944284  76.3782134  53.8976485  59.0932304  76.4540986
  53.3863753  57.3576314  77.5689264  53.8928607  56.3926203  77.5869637
  53.7805202  58.1424236  78.8290157  53.8714465  57.4726671  79.6841519
  54.7331042  58.6438582  78.6579980  52.8027715  59.2034061  79.2189459
  52.4551741  60.2368933  78.3792499  51.5766878  61.0190219  78.9846899
  51.1717848  61.8964341  78.4804078  51.3484371  60.5298723  80.1911890
  50.7196119  60.9170887  80.8802045  52.1084809  59.3988185  80.3654154
  52.0648429  58.8526812  81.3077163  51.9128150  57.0038261  77.6036493
  51.5095366  56.1758177  78.4294215  51.1080184  57.5464082  76.7049346
  51.4226198  58.1413011  75.9517894  49.6842510  57.3097639  76.8452129
  49.4991647  56.2890479  77.1798485  49.1163918  58.2714145  77.8798110
  49.6440260  58.0983639  78.8177636  49.3150291  59.2856941  77.5335741
  47.6687873  58.1001129  78.0922913  47.1464206  58.5309105  77.2380973
  47.3987223  57.0486398  78.1901236  47.2459584  58.8075684  79.3058309
  47.0980483  60.0177867  79.2992418  47.0837992  58.0662742  80.3906748
  46.7935811  58.4993127  81.2557485  47.2510525  57.0711232  80.3482221
  48.9821812  57.4759013  75.5047737  49.4099261  58.2663244  74.6605967
  47.8879704  56.7509540  75.3138941  47.6143582  55.9864360  75.9145171
  47.1029049  57.0024384  74.1192101  47.7068657  57.5531875  73.3980957
  46.6407899  55.6934416  73.4721899  46.1671195  55.9233533  72.5177915
  47.5372977  55.0983599  73.2982607  45.6809460  54.9148546  74.3342729
  44.6189471  55.4645026  74.6894494  45.9694831  53.7399411  74.6418548
  45.9330285  57.9257384  74.4540000  45.6344889  58.2023738  75.6174672
  45.2841020  58.4285578  73.4011995  45.5405030  58.1636548  72.4608887
  44.2236743  59.4184383  73.5773010  44.5843491  60.2417563  74.1938725
  43.7862220  59.9779994  72.2212299  44.7330514  60.2584745  71.7597680
  43.3176919  59.1867621  71.6359753  42.8573434  61.1995759  72.2657990
  41.9115280  60.8988053  72.7164331  43.4710721  62.3393150  73.0817456
  44.4167571  62.6409605  72.6314250  42.7873513  63.1881417  73.0926946
  43.6469123  62.0018751  74.1031735  42.4896355  61.6745155  70.8785365
  41.9776822  60.8744533  70.3438367  41.8315417  62.5402455  70.9528692
  43.3941745  61.9517829  70.3372132  43.0224885  58.8372705  74.3063289
  42.3439037  59.5509964  75.0497669  42.7454432  57.5479519  74.1122015
  43.2776039  56.9858260  73.4634190  41.6029640  56.9357511  74.7824801
  40.7030380  57.5207185  74.5926232  41.3828013  55.5183674  74.2597470
  41.2533649  55.5986987  73.1804453  42.2934944  54.9595715  74.4753512
  40.2016880  54.8004066  74.8541095  40.1481896  54.9925736  75.9257021
  39.2809880  55.1383490  74.3784957  40.3776687  53.3067670  74.6147446
  40.1781157  53.1051981  73.5622962  41.4104073  53.0448490  74.8448519
  39.4397567  52.4749636  75.4767598  38.4168138  52.6691346  75.1542914
  39.6756874  51.4222864  75.3208544  39.5758894  52.8066097  76.9304939
  39.3568951  53.7818997  77.0752375  38.9390053  52.2352795  77.4672065
  40.5235914  52.6263514  77.2296040  41.7930999  56.9430487  76.2961449
  40.9414543  57.4484490  77.0366921  42.9209553  56.4153214  76.7785431
  43.5838689  55.9324981  76.1890292  43.1983311  56.4959370  78.2127052
  42.4376193  55.9315472  78.7520388  44.5837303  55.9238009  78.5725431
  45.2881020  56.4218074  77.9062478  44.7720763  56.2371612  79.5993981
  44.7626649  54.3983128  78.4607162  43.9027069  53.9192928  78.9288113
  44.7933008  54.1355847  77.4032960  46.0819562  53.9063592  79.1611661
  46.0290031  54.2475375  80.1950386  46.0573221  52.8169078  79.1369129
  47.4248049  54.4165682  78.5072814  47.4177314  55.4961735  78.6572911
  48.2170757  53.9717841  79.1094220  47.6712292  54.1126135  77.0468114
  46.9374354  54.5250388  76.4886432  48.5626056  54.4975029  76.7685883
  47.6782472  53.1122692  76.9076671  43.1193931  57.9356925  78.6856257
  42.5926851  58.2143272  79.7672871  43.6548956  58.8662702  77.8973413
  44.1189098  58.6253583  77.0331934  43.6397153  60.2669887  78.3074601
  44.0153807  60.3555414  79.3268389  44.5225575  61.1088679  77.3867610
  45.5591630  60.7818702  77.4681301  44.1964335  61.0264288  76.3499645
  44.5054701  62.5636298  77.7257625  45.2069465  63.0356169  78.8195467
  45.7762916  62.3331062  79.4281720  45.1927705  64.3876023  79.1475250
  45.7546473  64.7398655  80.0125717  44.4708475  65.2819651  78.3822993
  44.4643008  66.3416744  78.6373936  43.7550755  64.8297156  77.2899487
  43.1763383  65.5270884  76.6842800  43.7757807  63.4689199  76.9628338
  43.2154084  63.1070286  76.1007911  42.2186910  60.8277293  78.3323962
  41.8522235  61.5761709  79.2507130  41.4114648  60.4960959  77.3208967
  41.7631607  59.9963642  76.5167341  40.0119418  60.9057957  77.3225224
  39.9423387  61.9890623  77.4214576  39.3368832  60.4902361  76.0152340
  39.6636627  59.4735149  75.7970773  38.2620173  60.4949069  76.1961803
  39.6568021  61.3943959  74.8248454  39.3488794  62.4047169  75.0941701
  40.7370870  61.3703921  74.6816310  38.8402552  60.9147024  73.2798346
  39.1458822  59.1390274  73.2219106  38.7064386  58.6653624  74.0997658
  38.6961128  58.7216096  72.3210385  40.2201565  58.9549329  73.2098544
  39.2646225  60.3220453  78.5170044  38.4929518  61.0264904  79.1770585
  39.4499743  59.0261387  78.7918222  40.0113176  58.4336624  78.1968726
  38.7875395  58.4212381  79.9451060  37.7063689  58.5089617  79.8379892
  39.1504094  56.9344047  80.0540586  40.2342209  56.8455955  79.9794621
  38.8252927  56.5939671  81.0371667  38.4905230  56.0704431  78.9695133
  37.5550640  56.5578589  78.2932734  38.9173149  54.9008365  78.7872305
  39.1652947  59.1556690  81.2287135  38.2963785  59.5397448  82.0235113
  40.4688365  59.3665599  81.4383146  41.1592741  59.0413061  80.7767972
  40.9329562  60.0168326  82.6589572  40.5908703  59.4387104  83.5173576
  42.4577588  60.0579032  82.6753052  42.8151522  60.6411251  81.8266462
  42.7994070  60.5189555  83.6020240  42.8498094  59.0430182  82.6089427
  40.3623328  61.4205281  82.7990037  40.2399904  61.9301066  83.9171938
  40.0140781  62.0579004  81.6851953  40.1460332  61.5939034  80.7978431
  39.4881865  63.4151764  81.6827311  39.7556919  63.9205695  82.6106954
  40.0741516  64.2023907  80.5115570  39.6007683  63.8707896  79.5874097
  39.8749229  65.2635914  80.6607582  41.4692665  63.9925711  80.4274847
  41.8240341  64.4922259  79.6885091  37.9726678  63.4723494  81.5991521
  37.4232765  64.5576277  81.4102232  37.2838877  62.3376278  81.7262850
  37.7296141  61.4791325  82.0168246  35.8661193  62.2985653  81.3796573
  35.7460206  62.7386687  80.3897157  35.3867311  60.8545265  81.3314479
  35.4922573  60.4029924  82.3178966  34.3393400  60.8287071  81.0307725
  35.9848545  60.2964432  80.6111072  35.0084532  63.1027376  82.3467900
  33.9383079  63.5897797  81.9648619  35.4429307  63.2503793  83.5988544
  36.2953569  62.8184513  83.9258209  34.6388897  64.0032497  84.5542627
  33.5793991  63.8171734  84.3783237  34.9784450  63.5755193  85.9748228
  36.0620633  63.4580184  85.9828283  34.6896687  64.3280141  86.7086210
  34.3188144  62.2415184  86.3265800  34.7935570  61.4325659  85.7713178
  34.4894911  61.9989933  87.8240299  34.0145691  62.8073542  88.3799981
  34.0247561  61.0508115  88.0943508  35.5511918  61.9653971  88.0684953
  32.8227166  62.1753919  85.8965374  32.7481101  62.3088238  84.8173112
  32.4075175  61.2058898  86.1718128  32.2643960  62.9651362  86.3992113
  34.8365809  65.4988952  84.3892784  33.8670275  66.2427802  84.1974423
  36.0925562  65.9507172  84.4555875  36.8566749  65.3227435  84.6602114
  36.3865204  67.3724273  84.3056723  35.6872472  67.9517416  84.9085911
  37.8040898  67.6593478  84.7924975  38.0138580  68.7226922  84.6767548
  37.9421307  67.2752188  86.2441847  37.7329502  66.2118384  86.3606552
  38.9575232  67.4842573  86.5809044  37.2358373  67.8515083  86.8417971
  38.7358192  66.8864108  84.0334129  39.6271269  67.0677010  84.3405037
  36.2043161  67.8337103  82.8622235  35.7371076  68.9500510  82.6201147
  36.5203465  66.9768643  81.8955168  36.7385745  66.0193810  82.1315286
  36.5642982  67.3675045  80.5018578  36.2802281  66.5118284  79.8893043
  35.8541262  68.1790317  80.3431801  37.9519307  67.8352835  80.0863051
  38.7960794  68.1939524  80.9068338  38.1977444  67.8126166  78.7801845
  37.5448301  67.4035790  78.1271221  39.4597674  68.3386890  78.2612241
  40.2371271  68.2664764  79.0218793  39.9151077  67.5987037  76.9910734
  39.2348874  67.8372626  76.1734608  41.3123271  68.0215001  76.6207938
  41.9932464  67.7828244  77.4377904  41.6260286  67.4926463  75.7207907
  41.3304032  69.0954699  76.4354255  39.8529894  66.0853246  77.1868387
  40.6295195  65.8170527  77.9031710  38.8749996  65.8507701  77.6070999
  40.0525142  65.3051367  75.9156078  41.0305508  65.5388323  75.4949767
  39.9956875  64.2381101  76.1308383  39.2760316  65.5725517  75.1989043
  39.2504845  69.8243058  77.9929902  38.2262867  70.2035213  77.4025764
  40.1630528  70.6972854  78.4122893  41.4380329  70.4148556  79.0841510
  42.1769909  70.0909973  78.3512410  41.2968398  69.6306416  79.8279063
  41.7797796  71.7241207  79.6990561  42.8639295  71.8169808  79.7630491
  41.3518363  71.7715579  80.7004129  41.1951533  72.7744469  78.8211005
  41.9452786  73.0196786  78.0692544  40.8933239  73.6829420  79.3422870
  39.9794154  72.1278615  78.1517258  39.0365328  72.4507608  78.5930951
  39.9565905  72.3984374  76.6528697  40.7386936  71.8263148  75.8905517
  39.0430454  73.2764124  76.2336749  38.3864940  73.6839133  76.8840460
  38.9186689  73.6178331  74.8184744  38.5205809  72.7716952  74.2584066
  37.9580236  74.8054715  74.6619736  37.9156352  75.2402200  75.6606208
  38.4262245  75.5131186  73.9777781  36.5386576  74.4939384  74.1808050
  35.9151949  75.3847557  74.2572240  36.6088734  74.0507089  72.7370421
  37.2318338  73.1596052  72.6598841  35.6053885  73.8241781  72.3767610
  37.0400933  74.8483436  72.1321217  35.8793713  73.4196200  75.0510783
  35.8268392  73.7685265  76.0823902  34.8726182  73.2209504  74.6835464
  36.4688322  72.5037959  75.0074786  40.2524223  73.9325743  74.1590580
  40.5003138  73.4246448  73.0522109  41.1367753  74.7342762  74.7454151
  40.9658108  75.5472568  75.9615646  41.1661545  74.9381468  76.8430110
  39.9461083  75.9294554  76.0087879  41.9858600  76.6476955  75.7719218
  42.3206347  77.0265152  76.7375928  41.5597146  77.4646706  75.1896392
  43.1223285  75.9754268  75.0141731  43.7578755  75.4114570  75.6969007
  43.7326770  76.6788774  74.4478414  42.4038929  75.0136842  74.0544671
  42.1687729  75.5085192  73.1121534  43.2096985  73.7594951  73.7785229
  43.8789140  73.6856401  72.7382609  43.1482901  72.7606006  74.6602132
  42.6353487  72.8530795  75.5253364  43.8818508  71.5236071  74.4204077
  44.8741870  71.7557757  74.0337994  44.0358608  70.7252506  75.7090162
  44.4274602  71.4408002  76.4320224  43.0588806  70.3729257  76.0398890
  44.9946806  69.5378043  75.5963541  44.5474593  68.8129019  74.9161993
  46.3691934  69.9337439  75.0820290  46.8172686  70.6583300  75.7619573
  47.0043732  69.0498602  75.0237451  46.2729714  70.3773656  74.0910489
  45.1445826  68.8330435  76.9155889  44.1726240  68.4647715  77.2438748
  45.8316000  67.9942037  76.8039819  45.5383765  69.5283845  77.6568893
  43.2083985  70.6697139  73.3605118  43.8984321  70.0155048  72.5703011
  41.8714180  70.6516563  73.3238101  41.3074080  71.0488785  74.0615137
  41.1922325  69.9704373  72.2219531  41.5145975  68.9308103  72.1640255
  39.6654816  70.0243053  72.3969160  39.3716946  71.0610000  72.5613965
  38.9506102  69.4849694  71.1746649  39.2435579  68.4480978  71.0098024
  37.8731122  69.5371242  71.3308015  39.2201662  70.0811457  70.3028780
  39.2422022  69.2347862  73.6219331  39.5402603  68.1962908  73.4777477
  39.7621494  69.6446000  74.4878471  37.7684158  69.3021475  73.8490945
  37.2477673  68.8920539  72.9837344  37.5101118  68.7232852  74.7358282
  37.4696560  70.3403641  73.9938316  41.6204710  70.5882253  70.9038026
  41.9402527  69.8793416  69.9407130  41.6791368  71.9221892  70.8572327
  41.3989302  72.4828318  71.6492323  42.0793108  72.6050883  69.6350974
  41.4694257  72.2607768  68.7998796  41.8907921  74.1145666  69.7880683
  40.9472869  74.2757563  70.3095231  42.7120153  74.4869374  70.4004672
  41.8702105  74.8552246  68.4675733  42.8635663  74.7874995  68.0239987
  41.1471817  74.3664278  67.8145733  41.4889274  76.3239267  68.6394697
  42.1868702  76.7668877  69.3499346  41.5994630  76.8109420  67.6706058
  40.0620247  76.5135522  69.1435561  39.3698285  75.9518955  68.5162550
  39.9834364  76.1645548  70.1731793  39.7181540  77.9792347  69.0827871
  39.7904968  78.3027214  68.1287313  38.7742936  78.1176172  69.4145669
  40.3591762  78.4998098  69.6643292  43.5164467  72.2640503  69.2794649
  43.8151761  71.9264223  68.1303456  44.4230682  72.3269399  70.2542168
  44.1968372  72.6348147  71.1891671  45.8082235  71.9892877  69.9544372
  46.1905506  72.6610613  69.1859026  46.6799375  72.1235716  71.1955091
  46.5959486  73.1362664  71.5898369  46.3476982  71.4113938  71.9508367
  48.0321311  71.8583899  70.8583324  48.5799589  71.9435696  71.6420601
  45.9107435  70.5784665  69.3992264  46.5781825  70.3438924  68.3874466
  45.2459028  69.6208271  70.0474205  44.7024927  69.8221966  70.8746177
  45.3521288  68.2310951  69.6098979  46.4020784  67.9499577  69.5282470
  44.6736026  67.2986522  70.6117583  43.7643201  67.8177242  70.9148568
  44.4094933  66.3916307  70.0680135  45.4833185  66.9316941  71.8466069
  46.8410001  67.2317702  71.9569160  47.3317493  67.7508931  71.1336444
  47.5721734  66.8792598  73.0969155  48.6324168  67.1208440  73.1719024
  46.9408238  66.2174772  74.1296044  47.6194056  65.8574690  75.2780842
  48.5438797  66.1158336  75.2641173  45.6026411  65.9047731  74.0290588
  45.1093183  65.3747398  74.8437966  44.8832308  66.2614633  72.8971931
  43.8242877  66.0137201  72.8239617  44.7625677  68.0263752  68.2138469
  45.3344744  67.2975335  67.3932060  43.6066971  68.6305471  67.9300043
  43.0900162  69.1641465  68.6144105  43.0336686  68.4763258  66.5964639
  42.9217906  67.4173589  66.3637157  41.6628748  69.1388088  66.5222920
  41.0748207  68.7479101  67.3526472  41.7587234  70.2199196  66.6228530
  40.9655018  68.8112497  65.2080771  41.5572466  69.2007612  64.3796933
  40.8194069  67.3112203  65.0620636  40.2273447  66.9210198  65.8898950
  40.3199723  67.0842625  64.1201740  41.8055871  66.8470310  65.0708640
  39.6011491  69.4913558  65.1549989  39.7295444  70.5710167  65.2321122
  39.1111048  69.2507245  64.2115719  38.9864852  69.1390017  65.9833309
  43.9616088  69.0671472  65.5502253  44.1896755  68.4692485  64.4882838
  44.5248832  70.2368851  65.8504391  44.3005278  70.7087370  66.7148000
  45.4270902  70.8977598  64.9168031  44.9175150  71.0907542  63.9727769
  45.8876746  72.2315126  65.5048759  45.0267761  72.8232799  65.8159458
  46.5368637  72.0566715  66.3628294  46.6636337  73.0764248  64.5466297
  46.0115714  73.7597858  63.5298831  44.9293390  73.6688466  63.4371304
  46.7128913  74.5432494  62.6468570  46.1943500  75.0811843  61.8532314
  48.0818604  74.6468588  62.7691427  48.6418066  75.2625917  62.0652726
  48.7431637  73.9760755  63.7760199  49.8250588  74.0659339  63.8736347
  48.0358898  73.1928469  64.6578235  48.5577353  72.6583709  65.4516198
  46.6191005  70.0067640  64.5867605  46.9156608  69.7529082  63.4135891
  47.3130209  69.5164671  65.6158812  47.0876762  69.7838634  66.5634140
  48.4476474  68.6201108  65.3998578  49.2119639  69.1233474  64.8076818
  49.0585102  68.2110545  66.7394643  48.2591614  67.7368528  67.3089143
  49.8289884  67.4740987  66.5128376  49.6630475  69.3402363  67.5588837
  50.5041798  69.7537489  67.0024624  48.9217647  70.1209884  67.7292597
  50.1655301  68.8481006  68.9015809  51.1346658  68.0878351  68.9687995
  49.4930400  69.2591568  69.9792282  49.7864607  68.9601557  70.8982517
  48.6939669  69.8672375  69.8705019  48.0338417  67.3825883  64.6188277
  48.7588790  66.9441448  63.7167871  46.8733015  66.7989316  64.9629560
  46.3358278  67.1350947  65.7492229  46.3921003  65.6201942  64.2490612
  47.1593100  64.8460516  64.2629087  45.1223494  65.0635158  64.9044678
  44.5302365  65.9581630  65.0971022  44.6204942  64.4505312  64.1558081
  45.2742399  64.2601732  66.2057114  45.8144010  64.8656598  66.9335251
  43.9256792  63.8915992  66.7624936  43.3850713  63.2856737  66.0353787
  44.0552681  63.3233449  67.6835769  43.3584896  64.7984268  66.9723987
  46.0957117  63.0140750  66.0038894  47.0911075  63.2872353  65.6536468
  46.1783554  62.4758585  66.9481321  45.6130403  62.3760123  65.2636169
  46.1378530  65.9473289  62.7887889  46.4572278  65.1486810  61.8995858
  45.5730635  67.1244051  62.5133613  45.2195998  67.7374697  63.2339962
  45.3726756  67.5071367  61.1204696  44.9043526  66.6917847  60.5691314
  44.4633117  68.7272237  61.0509074  44.8214052  69.4137263  61.8180987
  44.5255432  69.2090995  60.0751907  43.0056189  68.3505416  61.3425775
  42.9872895  67.6280854  62.1585565  42.1963445  69.5721329  61.7313904
  42.2138248  70.2948967  60.9156663  41.1665045  69.2773045  61.9329011
  42.6260276  70.0237440  62.6255494  42.3784279  67.6484981  60.1307390
  42.9395038  66.7416833  59.9049515  41.3440977  67.3885697  60.3559047
  42.4055460  68.3158602  59.2693498  46.7011929  67.7583675  60.4015553
  46.8337974  67.4284818  59.2163863  47.7040308  68.3052329  61.0923427
  47.5706987  68.6567405  62.0297670  49.0154627  68.4732897  60.4692782
  48.9103185  68.9875167  59.5139695  49.9264008  69.3036953  61.3733574
  49.9271794  68.8294728  62.3547908  50.9294180  69.2607181  60.9488463
  49.4998907  70.7466225  61.5119046  49.3329662  71.1936878  60.5319201
  48.5727530  70.7711167  62.0845456  50.5328909  71.5553643  62.2378054
  50.9943821  71.1755955  63.3183283  50.9356175  72.6685783  61.6371898
  51.6300402  73.2541505  62.0787595  50.5457562  72.9248666  60.7414076
  49.6504918  67.1232903  60.1526796  50.1053855  66.8819762  59.0255003
  49.6958520  66.2319847  61.1395321  49.4156199  66.4598673  62.0827388
  50.1611422  64.8841720  60.8663953  51.2226186  64.9249285  60.6220473
  50.0177823  64.2781841  61.7610047  49.4153250  64.2467171  59.7154678
  50.0204843  63.7003381  58.7957580  48.0825639  64.3075610  59.7478077
  47.5886716  64.7358747  60.5176889  47.3016155  63.6764969  58.6914897
  47.6262324  62.6455709  58.5503698  45.8256179  63.6747874  59.0690983
  45.8076753  63.2444672  60.0703983  45.4719014  64.7049658  59.1105367
  44.9148847  62.8595970  58.1473143  44.9371005  63.2848608  57.1439410
  45.4012777  61.4270660  58.0986558  45.3789063  61.0009519  59.1016639
  44.7538934  60.8450877  57.4426866  46.4217947  61.4020955  57.7165275
  43.4533108  62.9212444  58.5944490  43.1127983  63.9566326  58.5834060
  42.8396043  62.3302079  57.9146391  43.3645803  62.5208835  59.6043683
  47.5216252  64.3643024  57.3449088  47.6179026  63.6942210  56.3113617
  47.5971514  65.6983816  57.3225816  47.4557916  66.2621134  58.1486103
  47.8372611  66.3792286  56.0518134  47.0720350  66.0745370  55.3378868
  47.7642222  67.8960367  56.2286308  48.5305929  68.2174533  56.9339445
  47.9287881  68.3827554  55.2673175  46.7811384  68.1708723  56.6108751
  49.1838929  65.9850696  55.4748391  49.3409214  65.8836269  54.2563345
  50.1690859  65.7553244  56.3346285  50.0674977  65.9520923  57.3200531
  51.4543624  65.2629549  55.8576350  51.8587371  65.9289507  55.0953819
  52.4332014  65.2079627  57.0256808  52.4382436  66.1589958  57.5582311
  52.1449078  64.4102928  57.7103044  53.8366867  64.9377670  56.6258781
  54.6450749  65.9670539  56.1757414  54.2414341  66.9777468  56.1151289
  55.9576821  65.7214370  55.8036343  56.5853082  66.5364442  55.4431493
  56.4697189  64.4421526  55.8901899  57.5044763  64.2494189  55.6069396
  55.6695134  63.4044797  56.3364904  56.0677901  62.3918323  56.3999035
  54.3597146  63.6567109  56.7027355  53.7264514  62.8431782  57.0566313
  51.2979863  63.8986671  55.2078702  51.8110963  63.6547165  54.1115763
  50.5816428  62.9937382  55.8765357  50.2235124  63.2047221  56.7970398
  50.3368969  61.6630699  55.3265981  51.2810758  61.1329143  55.2018570
  49.4445336  60.8564903  56.2718183  48.5724049  61.4418845  56.5630304
  49.1183882  59.9338902  55.7916743  50.2525350  60.3620679  57.8103293
  49.2034105  59.7220778  58.3189046  49.6976449  61.7469949  53.9531733
  50.1640425  61.1285613  52.9919626  48.6260194  62.5191716  53.8467122
  48.2600487  63.0197570  54.6439443  47.9038634  62.6043347  52.5893495
  47.6930553  61.6075043  52.2020664  46.5811363  63.3265812  52.8217717
  46.7495945  64.2716489  53.3380741  46.0802429  63.5160634  51.8724023
  45.6226351  62.5444216  53.6627257  44.3858692  63.0219908  54.0445894
  43.7681471  62.1064103  54.7691242  42.7697754  62.2925378  55.1649897
  44.5609949  61.0540925  54.8756118  44.3520818  60.1998398  55.3723084
  45.7283535  61.3055251  54.1972537  46.5177001  60.5542054  54.1737599
  48.7363994  63.2952917  51.5247555  48.7551983  62.8683879  50.3688741
  49.4299410  64.3696779  51.8879418  49.3287615  64.8080338  52.7922129
  50.3163811  64.9915024  50.9148029  49.7587310  65.2458422  50.0134502
  50.9207759  66.2703991  51.4921348  51.2354817  66.9096728  50.6672780
  50.1571300  66.7827629  52.0773086  52.0321487  65.9842573  52.3163280
  52.3914197  66.8034496  52.6648219  51.4007052  64.0123496  50.4763488
  51.9139930  64.1034578  49.3544126  51.7327160  63.0437419  51.3234415
  51.4477850  63.0814151  52.2916844  52.6186235  61.9687328  50.9069511
  53.2413900  62.2940016  50.0736076  53.5242629  61.5763471  52.0672872
  52.9984473  61.3716693  52.9998772  54.0777891  60.6888678  51.7605475
  54.5406567  62.6306595  52.3716049  54.2187535  63.9718059  52.4015839
  55.3099160  64.6790662  52.6423521  55.2620281  65.7655907  52.7149487
  56.3299327  63.8466754  52.7562833  57.2893266  64.1027317  52.9409409
  55.8765920  62.5605543  52.5821232  56.5752848  61.7252845  52.6295999
  51.8682941  60.7721213  50.3363446  52.4934294  59.7790692  49.9982818
  50.5826333  60.8733374  50.0816381  50.0673526  61.6432519  50.4839028
  49.8196494  59.7876886  49.4140361  48.7607088  60.0454497  49.3966207
  50.2939811  59.5831669  47.9825190  51.2031535  58.9833504  48.0240542
  49.5162341  59.0273454  47.4588090  50.5747654  60.8730531  47.2449400
  50.7803836  61.6202350  48.0114524  51.4771502  60.6956861  46.6598377
  49.4885015  61.3675837  46.3466883  49.0512856  62.2318344  46.8467002
  49.9779384  61.6894177  45.4274637  48.4314011  60.4449879  46.0090881
  48.2243996  59.7103934  46.6706172  47.7534027  60.4804368  44.8706566
  48.0204449  61.3852388  43.9477070  48.7518417  62.0634445  44.1064388
  47.4921728  61.3952714  43.0869355  46.7720395  59.6349518  44.6730630
  46.5378810  58.9616224  45.3885330  46.2543425  59.6605239  43.8062096
  49.7651224  58.5150847  50.2627904  49.8371302  57.4411140  49.6902384
  49.6202795  58.6620871  51.5656622  49.6718195  59.5965361  51.9454622
  49.4422264  57.5536797  52.4864289  49.3930518  56.6023338  51.9566912
  50.5987203  57.4949521  53.4936462  50.8207604  58.5087891  53.8267108
  50.2473854  56.6463284  54.6775704  50.0256520  55.6321543  54.3453261
  51.0871949  56.6251321  55.3720999  49.3733709  57.0635047  55.1777345
  51.8388078  56.9488030  52.8084300  52.1126390  57.6002208  51.9785062
  52.6607181  56.9067568  53.5231293  51.6345272  55.9468205  52.4310691
  48.0963583  57.7381808  53.1813479  47.8370567  58.7973573  53.7626273
  47.2258808  56.7401080  53.0736786  47.4166013  55.9791925  52.4374926
  46.0013036  56.6925945  53.8588405  45.6721009  57.7079288  54.0797951
  44.8910064  55.9745709  53.1039331  45.2887644  54.9677012  52.9770428
  44.0663682  55.9517884  53.8163606  44.3920839  56.4912363  51.7715131
  45.2020437  56.4838488  51.0421220  43.2772010  55.5894828  51.2948131
  42.4666221  55.5967151  52.0235163  42.9051902  55.9472337  50.3347490
  43.6544395  54.5731045  51.1818238  43.8870875  57.9113215  51.9427278
  44.6986498  58.5455790  52.2993560  43.5267484  58.2872852  50.9851746
  43.0724725  57.9229854  52.6668585  46.2639754  55.9339661  55.1469261
  46.7246930  54.7891183  55.1043610  45.9226690  56.5354373  56.2874424
  45.5656997  57.4799203  56.3124259  46.1400895  55.8414071  57.5588430
  47.1441068  55.4175034  57.5776574  45.9949498  56.8038179  58.7343760
  46.6454035  57.6571524  58.5424662  44.9738959  57.1531600  58.8877032
  46.4404533  56.2104516  60.0251142  45.6789453  55.2943764  60.7177367
  46.3353976  54.9144336  61.8000282  45.8921693  54.2032825  62.4971019
  47.5045652  55.5325103  61.8171863  48.2214518  55.4270791  62.5207897
  47.5945003  56.3490811  60.7181960  48.4912391  56.9469512  60.5553707
  45.1922481  54.6550028  57.7254874  45.6266053  53.5324768  58.0069730
  43.8906361  54.8820692  57.5865446  43.5954148  55.8467638  57.5385013
  42.8641366  53.8419176  57.5738094  41.9114546  54.2873501  57.2873025
  43.1955856  52.7144902  56.5855392  44.1246494  52.2566728  56.9251609
  42.3871775  51.9862718  56.6509174  43.3510977  53.1645881  55.1564955
  42.6934418  54.0180573  54.9916324  44.3863278  53.4692915  55.0030142
  43.0004199  52.0625625  54.1815931  42.1326883  51.5274232  54.5672962
  42.7490053  52.5193137  53.2243740  44.0865693  51.1056100  53.9732560
  44.9700845  51.4901474  53.6705493  43.9919927  49.7840273  54.1455562
  42.8434854  49.2181865  54.5457452  42.0337611  49.7958346  54.7211567
  42.7936906  48.2170754  54.6698288  45.0609196  49.0199164  53.9215500
  45.9281471  49.4443912  53.6251758  44.9987607  48.0199475  54.0492107
  42.5854774  53.2085875  58.9457413  41.7099756  52.3357230  59.0395456
  43.2797907  53.6032642  60.0112981  44.0790526  54.2152201  59.9288985
  42.9511828  53.0638128  61.3337031  41.9147108  52.7264972  61.3402696
  43.8552941  51.8768231  61.6903925  44.0054696  51.3071882  60.7732978
  44.8131046  52.2639583  62.0379920  43.2504630  50.9612555  62.7692870
  42.0005631  50.8887520  62.8689584  44.0342449  50.3287645  63.5314119
  43.0220409  54.1680435  62.3924924  43.4440026  53.9423451  63.5315365
  42.5969749  55.3752125  62.0427630  42.3258232  55.5928211  61.0944895
  42.5679192  56.4415901  63.0295703  43.5171961  56.4665599  63.5646862
  42.3444444  57.7986433  62.3698009  41.3988128  57.7003339  61.8366824
  42.2442060  58.5528585  63.1503211  43.4387979  58.2213619  61.3911940
  43.5810431  57.4232240  60.6626042  43.0680302  59.4977357  60.6733757
  42.9260640  60.2965033  61.4013282  43.8664511  59.7726658  59.9841455
  42.1436567  59.3463486  60.1159568  44.7402075  58.3973633  62.1156700
  45.0254856  57.4559381  62.5851743  45.5126711  58.6986507  61.4081199
  44.6296051  59.1655912  62.8809752  41.4748856  56.1435622  64.0428831
  40.2947813  56.0655859  63.7001886  41.8803411  55.9385756  65.2818300
  42.8779512  55.8815590  65.4288762  41.0041321  55.7684464  66.4285221
  40.1355781  56.4179282  66.3194963  40.5196192  54.3185647  66.5505524
  39.8801992  54.2620666  67.4314890  39.9313377  54.0959083  65.6603564
  41.6429629  53.3118156  66.6774344  42.3201771  53.4202345  65.8302466
  42.1878166  53.4960100  67.6033443  41.0822393  51.9163462  66.6952141
  40.3176756  51.8635184  67.4702951  40.6290600  51.7161530  65.7243121
  42.1386763  50.8999877  66.9694058  42.9652007  51.0150160  66.2681737
  42.5101530  51.0061681  67.9886358  41.5379341  49.5699261  66.8036742
  41.1940375  49.4711737  65.8591729  42.2343924  48.8610941  66.9842374
  40.7723079  49.4629743  67.4536565  41.7933406  56.1746022  67.6614979
  43.0268802  56.1533137  67.6422903  41.1209202  56.5757149  68.7344417
  39.6660346  56.7119802  68.8836158  39.1754320  55.8085324  68.5214124
  39.3184318  57.5694692  68.3074354  39.4956054  56.9065202  70.3496670
  39.1898146  55.9524683  70.7790574  38.7048738  57.6417228  70.4990723
  40.7912794  57.3845747  70.9417268  41.0340189  56.8405024  71.8545038
  40.7287730  58.4505657  71.1604865  41.8727223  57.1296951  69.8778088
  42.2952494  58.0801933  69.5520447  42.9908513  56.2260226  70.3917774
  44.0447775  56.7483214  70.7848863  42.8152235  54.8972168  70.3840401
  41.9305023  54.4813956  70.1301497  43.8981036  54.0144921  70.8119580
  44.2206730  54.2914289  71.8156284  43.4359111  52.5509204  70.8316586
  43.0871567  52.3212662  69.8248177  44.3167565  51.9495401  71.0564990
  42.3347333  52.2328246  71.8349738  42.5211667  51.2451713  72.2567373
  42.3657787  52.9783874  72.6295016  40.9326482  52.2420178  71.2077674
  40.4852121  53.2501508  70.6130212  40.2305523  51.1112591  71.3358926
  39.3008380  51.0507762  70.9459250  40.6331552  50.3228033  71.8220506
  45.1419889  54.1425250  69.9310630  46.2239082  53.7235010  70.3505133
  45.0283658  54.7010711  68.7252305  44.1230888  55.0057153  68.3969551
  46.1657688  54.8142267  67.8202071  46.9817448  54.1805219  68.1676270
  45.7662681  54.3686675  66.4092758  44.7931097  54.7954994  66.1666309
  46.5084538  54.7294958  65.6971921  45.6766467  52.8667505  66.2929639
  46.1591775  52.1642991  67.1738589  45.0690917  52.3612135  65.2179196
  44.9920104  51.3600363  65.1092808  44.6890718  52.9820456  64.5177388
  46.7590679  56.2187135  67.7812963  47.5653291  56.5164238  66.8926049
  46.3733730  57.0887242  68.7119122  45.6670254  56.7949217  69.3713457
  46.8954808  58.4489559  68.8165259  47.6197751  58.6223228  68.0206359
  45.7757339  59.4806185  68.6908187  45.1951182  59.3951682  69.6093408
  46.2225723  60.4732553  68.6350713  44.8651520  59.2683407  67.4956297
  44.4277522  58.2715392  67.5519240  43.7651942  60.3000192  67.4903027
  44.2018331  61.2971274  67.4335529  43.1182263  60.1376481  66.6282303
  43.1793705  60.2120144  68.4052706  45.6886213  59.3488700  66.2237683
  46.4586108  58.5775261  66.2393947  45.0406010  59.1972026  65.3605371
  46.1590565  60.3298137  66.1563960  47.5879308  58.5749927  70.1650705
  46.9645975  58.3463048  71.2133059  48.8684016  58.9238559  70.1479264
  49.3241446  59.1533005  69.2762884  49.6670426  58.9251158  71.3659559
  49.0761209  58.5175130  72.1861820  50.9317026  58.0760036  71.2046343
  51.5595068  58.6175902  70.4970716  51.4504041  57.9921976  72.1596345
  50.6390102  56.6767503  70.6590819  50.2302723  56.7760525  69.6535108
  51.8679031  55.8434735  70.6136394  52.2769880  55.7433292  71.6189848
  51.6238186  54.8562762  70.2212555  52.6059223  56.3185050  69.9672857
  49.5847514  55.9751082  71.4706347  48.6613543  56.5537409  71.4457055
  49.4036048  54.9845931  71.0533016  49.9242126  55.8778052  72.5018462
  50.0270619  60.3472307  71.7491586  50.2758436  61.1970251  70.8824826
  50.0374396  60.5940756  73.0522525  49.7603528  59.8578502  73.6857306
  50.3775326  61.8919447  73.6108602  50.6660207  62.5548749  72.7951412
  49.1947528  62.5125428  74.3838213  49.4781080  63.5071426  74.7281779
  47.9752202  62.6161577  73.4901921  47.6909671  61.6218293  73.1457913
  47.1499651  63.0557799  74.0503592  48.2063169  63.2454947  72.6307571
  48.8512000  61.6510508  75.5895365  48.5912306  60.6578242  75.2234526
  49.7419494  61.5857709  76.2143593  47.7155621  62.1980745  76.3960603
  46.8242743  62.2632159  75.7719910  47.5190597  61.5388574  77.2415890
  47.9749926  63.1911642  76.7628960  51.5893442  61.7221802  74.5179288
  51.7787913  60.6768612  75.1530217  52.4244792  62.7523970  74.5560592
  52.3532530  63.4848195  73.8642620  53.5169043  62.8085167  75.5055681
  53.6322648  61.8428459  75.9977786  54.8290423  63.1513731  74.7834196
  55.6568216  63.0259768  75.4813856  54.9454706  62.4543777  73.9535149
  54.8659711  64.5768209  74.2329438  53.9940284  65.4048532  74.5241608
  55.8971254  64.8694598  73.4356932  55.9786238  65.7950553  73.0398009
  56.5905319  64.1637799  73.2324592  53.1364221  63.8002562  76.6034948
  52.0047698  64.2955592  76.6551848  54.0818951  64.0879572  77.4960372
  54.9780736  63.6253965  77.4412554  53.8450819  65.0051788  78.6013996
  52.7854187  65.0784687  78.8460251  54.6026369  64.5376768  79.8452016
  54.4109909  65.2360607  80.6598377  54.1461374  63.1360643  80.2572205
  54.3379032  62.4369900  79.4432053  54.6960060  62.8202628  81.1437942
  53.0789432  63.1513625  80.4784964  56.0155927  64.5528286  79.5857879
  56.4877561  64.2589480  80.3682815  54.2296879  66.4374201  78.2672858
  54.2714722  67.2846755  79.1590079  54.5195324  66.7256266  77.0068600
  54.4965954  65.9894539  76.3157573  54.9343599  68.0550004  76.5851451
  55.0676971  68.6960544  77.4565637  56.2631260  67.9805864  75.8237175
  56.0812375  67.4260663  74.9031072  56.5574743  69.0014537  75.5802243
  57.3860814  67.3004152  76.6164025  57.4501928  67.7917571  77.5872649
  57.0913307  66.2602124  76.7549643  58.7560357  67.3561622  75.9231411
  58.8146892  67.6429259  74.6972066  59.7791859  67.1199130  76.6148295
  53.8824387  68.7376547  75.7300102  54.1559073  69.7962361  75.1660099
  52.6937913  68.1523969  75.6136328  52.5319860  67.2565696  76.0511391
  51.6108836  68.7592015  74.8743756  50.6923139  68.5438992  75.4202454
  51.7888096  69.8345809  74.8734634  51.4582307  68.2862562  73.4518606
  50.6238051  68.8349368  72.7247791  52.2195940  67.2862168  73.0338535
  52.8825574  66.8612444  73.6662911  52.1593817  66.7950773  71.6647774
  51.7364880  67.5794438  71.0370599  53.5502813  66.4431342  71.1363435
  53.9830635  65.6525036  71.7492895  53.4715495  66.1003868  70.1046334
  54.1892204  67.3252529  71.1778496  51.2685609  65.5689166  71.5550993
  51.0934507  64.8056368  72.5065794  50.7128833  65.3843060  70.3651466
  50.7559865  66.1205644  69.6750995  49.9918543  64.1691395  70.0310696
  50.2208544  63.3579817  70.7222145  48.4759739  64.3968770  69.9951102
  48.1496929  64.7940624  70.9562995  48.1274919  65.3748490  68.9036817
  48.4530714  64.9781197  67.9420661  47.0488299  65.5305970  68.8854722
  48.6280533  66.3245016  69.0926189  47.7534992  63.0557016  69.8385259
  47.9002463  62.7201212  68.8119043  48.2215020  62.3473889  70.5221676
  46.2643083  63.1388918  70.1363849  45.7955066  63.8467179  69.4527864
  45.8119079  62.1556754  70.0070845  46.1167623  63.4739880  71.1630497
  50.5157495  63.6941793  68.6849194  50.9922015  64.4936421  67.8727410
  50.4623647  62.3825701  68.4540611  50.0506002  61.7398445  69.1154635
  51.0687203  61.8365082  67.2447715  51.0516189  62.5876763  66.4551176
  52.5380917  61.4244263  67.5037019  52.5146812  60.5597222  68.1669048
  52.9617334  61.1331392  66.5425674  53.3997211  62.5222214  68.1283792
  53.2648118  63.4294182  67.5394017  53.0411830  62.6920979  69.1436104
  54.8708361  62.1591509  68.1665816  54.9822234  61.1910889  68.6549951
  55.2445485  62.0950764  67.1446555  55.6617919  63.2030655  68.9287766
  55.2024674  64.1769235  68.7593001  55.6193764  62.9618119  69.9908956
  57.0770031  63.2407075  68.4868496  57.1165470  63.4646668  67.5027875
  57.5752566  63.9445608  69.0126196  57.5029283  62.3385282  68.6442000
  50.2800582  60.6456414  66.7122650  49.7566035  59.8314798  67.4855115
  50.2191351  60.5546823  65.3760989  50.5884055  61.3037906  64.8081415
  49.6150777  59.4105157  64.7035951  48.6375342  59.2003154  65.1375580
  49.4359188  59.7005343  63.2140461  50.4558892  59.8394027  62.8556118
  49.0036525  58.8167191  62.7448802  48.5953761  60.9330811  62.8542608
  49.1339264  61.8343423  63.1471646  48.3376205  60.9622420  61.3669089
  47.7986587  60.0614549  61.0733078  47.7405111  61.8395831  61.1182452
  49.2873417  61.0067696  60.8338541  47.2783174  60.9817873  63.6134434
  47.4768094  61.0124913  64.6847779  46.7229069  61.8731262  63.3216638
  46.6900312  60.0946986  63.3787265  50.4943070  58.1841878  64.8794492
  51.7017947  58.2560849  64.6484050  49.8928712  57.0584886  65.2790057
  48.9020901  57.0734150  65.4745287  50.6177608  55.8142528  65.4849023
  51.5862880  55.8814945  64.9893896  50.8472580  55.5285060  66.9697810
  49.8861702  55.4493498  67.4778603  51.3940439  54.5920147  67.0798240
  51.4253494  56.3402178  67.4114068  49.8530256  54.6602786  64.8560503
  48.7183537  54.8065084  64.3948926  50.4921530  53.4905613  64.8772069
  51.4410685  53.4903365  65.2231241  49.9469409  52.2457144  64.3584586
  50.7148550  51.4730428  64.3956830  48.7464442  51.7788967  65.1731696
  48.8853647  52.0541537  66.2186522  47.8663862  52.2864493  64.7782161
  48.5555955  50.2883889  65.0678063  49.1806725  49.6823515  64.1426953
  47.8183087  49.7137611  65.9019244  49.5787583  52.3658179  62.8783404
  48.4021226  52.4538950  62.5105814  50.6178838  52.3351014  62.0463947
  51.5388937  52.2899626  62.4584658  50.5135138  52.4121898  60.5958502
  49.5835602  52.9064431  60.3147822  51.6857145  53.2149339  60.0260102
  52.6026570  52.9939125  60.5723300  51.8211631  52.9650780  58.9737148
  51.4940873  54.6999397  60.0929030  51.6816917  55.3808948  61.2796653
  51.9651929  54.8326522  62.1780844  51.5127201  56.7417837  61.3309794
  51.6628792  57.2763840  62.2689321  51.1485392  57.4403427  60.1813444
  51.0130399  58.5211814  60.2204294  50.9599433  56.7654220  58.9964805
  50.6705256  57.3046389  58.0944923  51.1375274  55.4129550  58.9555538
  50.9995302  54.8732611  58.0186508  50.4713754  51.0437701  59.9214335
  50.7760024  50.9450387  58.7297866  50.1314564  49.9875567  60.6565413
  49.9077712  50.0707696  61.6379382  50.0754125  48.6698480  60.0464988
  51.0623815  48.4355953  59.6476039  49.8152391  47.9462949  60.8190789
  49.0571491  48.5831754  58.9262633  49.2690572  47.8752551  57.9316876
  47.9384261  49.3004308  59.0672339  47.7921462  49.8394202  59.9087753
  46.8788299  49.2786679  58.0683299  46.9366158  48.3508072  57.4992652
  45.4861050  49.3673303  58.7268291  45.6200603  50.2667832  59.3277782
  44.7868563  49.5732449  57.9164277  44.9257361  48.2342005  59.6144678
  45.5342594  48.1684316  60.5163962  43.4680090  48.4945549  60.0008925
  42.8587478  48.5599918  59.0994394  43.1056543  47.6778396  60.6252130
  43.3998971  49.4315330  60.5536432  45.0518560  46.8565573  58.9703342
  46.1027221  46.6389785  58.7794433  44.6412353  46.1021525  59.6414268
  44.5018241  46.8431189  58.0293861  47.0152744  50.3901971  57.0342584
  46.1474366  50.4977527  56.1642978  48.0685683  51.2070956  57.0969047
  48.7500095  51.1034208  57.8351383  48.2429502  52.2995843  56.1410650
  47.3143129  52.8674497  56.0839613  49.3653853  53.2400259  56.5998712
  50.3036806  52.6878781  56.6531149  49.4666716  54.0598050  55.8886725
  49.1242195  53.6413523  57.5841858  48.5506746  51.7692238  54.7385325
  49.1907281  50.7306147  54.5709836  48.0887712  52.4957771  53.7217382
  47.4704365  53.2777535  53.8838323  48.4307222  52.1595442  52.3468648
  49.3190986  51.5280137  52.3543378  47.3098358  51.4172783  51.6192371
  46.4422299  52.0770711  51.6249476  47.6466738  51.2697083  50.5931458
  46.9314356  50.0812067  52.2229690  46.6433884  50.2686465  53.2573751
  46.0691221  49.7127765  51.6672923  48.0574281  49.0242517  52.1858072
  48.4109038  48.9168195  51.1603257  48.8791518  49.3573059  52.8197983
  47.5934668  47.7097880  52.6656303  47.1336402  47.1288996  51.9791702
  47.7286618  47.2397523  53.9142830  48.3373664  47.9528220  54.8722895
  48.7068760  48.8681687  54.6585068  48.4237340  47.5715122  55.8035484
  47.2497311  46.0326853  54.2087311  46.7920605  45.4860419  53.4933161
  47.3463281  45.6693066  55.1461337  48.7691158  53.4132574  51.5573466
  48.1743644  54.4829352  51.7572597  49.7315498  53.2670635  50.6562821
  50.3087134  52.4382451  50.6498452  50.0032405  54.3013881  49.6775091
  49.8591828  55.2903433  50.1126116  51.4337068  54.2027596  49.1531041
  51.5905120  53.2210503  48.7061601  51.5996447  54.9743691  48.4013171
  52.1336768  54.3423439  49.9769108  49.0194021  54.1576680  48.5406153
  48.5883901  53.0510740  48.2030586  48.6268205  55.2818307  47.9807556
  48.9013257  56.1748028  48.3646138  47.7318682  55.2697890  46.8436204
  47.7179171  54.2701533  46.4093014  46.2858702  55.6545045  47.2475307
  45.6431939  55.5932317  46.3692870  45.9080068  54.9858582  48.0209849
  46.1488378  57.0613450  47.7868338  45.5133780  58.0424102  47.0556054
  45.0911209  57.7878223  46.0835027  45.4072601  59.3363300  47.5396256
  44.9015163  60.0941145  46.9412223  45.9319165  59.6658133  48.7596213
  45.8489020  60.6843027  49.1389467  46.5643015  58.7069140  49.5051751
  46.9790247  58.9606963  50.4807259  46.6776296  57.4067825  49.0167474
  47.1887548  56.6457133  49.6063443  48.3052339  56.2164797  45.8037039
  48.8103267  57.2922743  46.1377342  48.3157840  55.7742810  44.5599133
  48.2671307  54.7907782  44.3352928  48.3995227  56.7203644  43.4742688
  48.6605808  57.7248464  43.8073808  49.0904120  56.4066059  42.6917555
  47.0013219  56.7373286  42.9155205  46.3501597  57.7829534  42.8031705
  46.5340738  55.5328641  42.6014863  47.2040092  54.7792478  42.5436204
  45.1370534  55.2405119  42.3022703  44.6793276  55.9576444  41.6208694
  44.9895833  53.8286429  41.7030496  44.5192070  53.1790776  42.4412300
  44.1322097  53.8665636  40.4383150  44.6022146  54.5156138  39.6994441
  44.0402945  52.8598240  40.0307277  43.1418097  54.2513372  40.6815406
  46.3711754  53.1867307  41.4398652  46.9216216  53.1106833  42.3775900
  46.2352897  52.1912612  41.0171654  46.9320893  53.8050291  40.7390202
  44.3304709  55.3685304  43.5916722  44.9091401  55.3793288  44.6918823
  43.0118709  55.5119377  43.5185667  42.2940634  56.3805701  42.5696809
  42.0802718  55.8250703  41.6565471  42.9100299  57.2476112  42.3310934
  41.0464853  56.7532568  43.3251162  40.2228888  56.8940870  42.6251485
  41.2153093  57.6776667  43.8774442  40.7810928  55.6122754  44.2600869
  40.2802332  54.8114639  43.7160834  40.1958852  55.8730903  45.1419073
  42.1849065  55.1591223  44.6790683  42.5462557  55.7141947  45.5447585
  42.2497868  53.6562031  44.9732356  42.3777436  52.8239173  44.0683282
  42.1712910  53.3212203  46.2857160  41.9924884  54.0855684  46.9212481
  42.3651728  51.9825196  46.8469337  43.0235344  51.3387293  46.2636730
  42.9509166  52.1266594  48.2744725  42.3566412  52.8649584  48.8128503
  42.9337403  50.8135654  49.0333409  43.5282296  50.0748465  48.4957744
  43.3534543  50.9627409  50.0281712  41.9071733  50.4580912  49.1222233
  44.3637126  52.7124602  48.2301699  44.3349186  53.6969408  47.7631893
  44.7519065  52.8033150  49.2446405  45.0122008  52.0550350  47.6510706
  41.0332391  51.2330457  46.8553285  39.9821956  51.8653209  46.9620081
  41.0504818  49.8894624  46.7798518  41.9385551  49.4206019  46.6721719
  39.8277343  49.0754741  46.7716852  38.9717252  49.6987658  46.5131217
  39.9400171  47.9434472  45.7399291  40.6483574  48.2737958  44.9801771
  40.3452795  47.0761842  46.2611942  38.6028696  47.5604009  45.0654655
  37.8893584  47.3455282  45.8609731  38.2653156  48.4291143  44.5002255
  38.7053904  46.3365621  44.1192271  38.7134192  46.6908383  43.0884396
  39.6359396  45.8090763  44.3288367  37.5848488  45.3996355  44.2865743
  36.6538964  45.7896624  44.2504364  37.7179728  44.0893580  44.4923506
  38.9289915  43.5380077  44.5333196  39.7479838  44.1156163  44.4079404
  39.0232205  42.5446297  44.6895911  36.6352276  43.3303089  44.6439496
  35.7177621  43.7505814  44.6023771  36.7360266  42.3375211  44.7998681
  39.5062852  48.4992134  48.1658455  40.3537125  48.4849488  49.0615199
  38.2612897  48.0113788  48.3393209  37.6961099  47.8713935  47.5140480
  37.6741096  47.6925727  49.6481223  38.2675965  48.0984395  50.4673565
  36.2545468  48.2511307  49.7497662  35.5430917  47.4524501  49.5399066
  35.9983082  48.8055534  51.1474787  36.7091325  49.6046498  51.3578910
  34.9833092  49.1990788  51.2023771  36.1191171  48.0096837  51.8823918
  36.0550328  49.2677463  48.7565885  35.1620572  49.6130458  48.8270375
  37.6005234  46.1902647  49.9370322  37.4548609  45.3671836  49.0200921
  37.6299663  45.8434265  51.2376933  37.6554125  46.5541506  51.9548566
  37.7281828  44.4360652  51.6479743  37.2353874  43.8032442  50.9098757
  39.1950381  44.0049415  51.7617321  39.6763403  44.7658505  52.3761139
  39.3240593  43.0277917  52.2271694  39.8212000  43.9951818  50.3946304
  40.6681262  45.0225183  49.9887319  40.9067684  45.8166841  50.6961569
  41.2043955  45.0477713  48.7135999  41.8791304  45.8500356  48.4149253
  40.8775969  44.0404511  47.8099132  41.4199511  44.0672867  46.5234468
  41.9985189  44.8190095  46.3758939  40.0135137  43.0151651  48.1950648
  39.7522318  42.2210973  47.4955731  39.4874903  43.0107222  49.4741918
  38.7964692  42.2238587  49.7765749  36.9754584  44.1650269  52.9460364
  37.4463741  44.5091391  54.0314107  35.8434026  43.4763122  52.8261846
  35.6202628  43.2624805  51.8646317  34.8970355  43.0701219  53.8643132
  34.2755685  42.2676030  53.4670208  35.5613658  42.5794127  55.1732272
  36.0138889  43.4310707  55.6811658  34.5231149  41.9291028  56.0933560
  34.0704606  41.0770231  55.5862427  35.0091608  41.5904732  57.0083361
  33.7500432  42.6565138  56.3410126  36.5848028  41.6255175  54.8750079
  36.9913606  41.3265482  55.6916648  33.9287588  44.1971932  54.2060919
  32.8889948  43.9280266  54.8273086  34.2116132  45.4414938  53.7972859
  34.8731561  45.5159172  53.0377324  33.6866107  46.6715682  54.3803035
  33.8172685  47.4690251  53.6488049  32.1940474  46.6056365  54.7779887
  32.0599990  45.7966148  55.4960516  31.8886132  47.5482299  55.2322217
  31.2316479  46.3405824  53.6434265  31.5895150  45.6989761  52.4742586
  30.5378851  45.6083997  51.6777088  30.6204947  45.1334423  50.7001148
  29.5063357  46.1638092  52.2864846  28.5694757  46.2416315  51.9172463
  29.9103908  46.6263942  53.5181971  29.1944741  47.1165808  54.1779557
  34.5385397  46.9959968  55.6103064  34.2141649  47.9464175  56.3452693
  35.6226821  46.2390207  55.8583029  35.8828993  45.5666642  55.1509677
  36.4065994  46.2811005  57.1027132  35.8148026  46.7259935  57.9026795
  36.8040496  44.8593696  57.5195292  36.0527673  44.5382629  58.2410309
  36.7254905  44.2507041  56.6187214  38.2229412  44.6898161  58.1379548
  38.6164726  45.6853520  58.3432404  38.1089522  44.1444509  59.0748019
  39.2013462  43.9299710  57.2162448  38.7684217  42.9326775  56.5908345
  40.3929565  44.3319867  57.1185859  37.6325031  47.1765781  56.8993272
  38.7092295  46.7209639  56.4831363  37.4934843  48.4644001  57.2201409
  36.6067064  48.9142624  57.3971952  38.6863839  49.3018976  57.1148112
  39.6255909  48.7560996  57.0248445  38.5833837  50.3163824  55.9317610
  39.5032039  50.2608164  55.3495734  37.4022466  50.0121178  55.0377884
  36.4819564  50.0679500  55.6192089  37.3633846  50.7388213  54.2263130
  37.5088362  49.0099568  54.6225613  38.5961853  51.7713597  56.3747125
  39.5253484  51.9823768  56.9040799  38.5215304  52.4184378  55.5007467
  37.7508647  51.9574595  57.0372084  39.0106977  49.9413557  58.4727504
  40.0161273  49.5903588  59.1027301  38.1675961  50.8441834  58.9732301
  37.2159066  50.9535710  58.6531974  38.6831548  51.7983359  59.9395971
  39.7728550  51.7750001  59.9499950  38.2238508  53.2310305  59.5962720
  37.7301770  53.6689801  60.4637889  39.4286992  54.0829194  59.2138644
  39.9226542  53.6458229  58.3460764  39.0981488  55.0931756  58.9725777
  40.1280671  54.1197807  60.0491054  37.2252221  53.2602973  58.4427720
  36.3428291  52.6791314  58.7105980  36.9332611  54.2907707  58.2403295
  37.6852548  52.8319206  57.5522866  38.3492545  51.4657617  61.3896846
  38.7215775  52.2517226  62.2696102  37.7300535  50.3166803  61.6815068
  37.5917383  49.6205418  60.9629253  37.2116125  50.0384759  63.0330567
  37.0892779  48.9609259  63.1426899  38.1125292  50.5532769  64.1813067
  38.4579028  51.5569768  63.9335087  37.3308997  50.5915232  65.5241527
  36.9855836  49.5880292  65.7728621  37.9852386  50.9566416  66.3157513
  36.4729305  51.2567585  65.4269351  39.2670974  49.7159364  64.3449008
  39.8091667  50.0547033  65.0611397  35.8359991  50.6822173  63.1897756
  35.6944525  51.8897164  62.9660089  34.8500825  49.9074787  63.6593763
  35.0737023  49.0615445  64.1638452  33.4416409  50.2077244  63.3979540
  33.2332644  50.1670310  62.3288317  32.5771802  49.1712785  64.1017847
  32.9992265  48.2166963  63.7875410  32.6822194  49.2765348  65.1815939
  31.0996546  49.2211220  63.7279028  30.6840286  50.1461165  64.1275787
  30.8723782  49.1720449  62.2112278  31.2873558  48.2470536  61.8108735
  29.8033225  49.2104978  62.0020818  31.3647755  50.0236706  61.7417825
  30.3758323  48.0857434  64.4214283  30.4848719  48.1902391  65.5009145
  29.3182490  48.1143775  64.1591331  30.8027246  47.1343569  64.1040552
  33.0476577  51.6233859  63.8218949  32.4258563  52.3653973  63.0485625
  33.3728238  52.0081266  65.0596746  33.8904666  51.3978097  65.6758391
  32.9387631  53.2999542  65.5723848  31.8517129  53.3696156  65.5327822
  33.3852712  53.4685400  67.0201673  34.4365971  53.2012384  67.1267642
  33.2394873  54.5011282  67.3373559  32.6392754  52.6279279  67.9682789
  31.7429675  51.6598248  67.6633569  31.5484170  51.4832716  66.6054917
  31.2544221  51.0874847  68.8160790  30.5635394  50.3520630  68.8600739
  31.8424728  51.6921628  69.8955542  31.6630163  51.4749232  71.2503842
  30.9561700  50.7100948  71.5721053  32.3940192  52.2443903  72.1045858
  32.2848488  52.0989483  73.1793082  33.2806120  53.2157275  71.6403465
  33.8562819  53.8234795  72.3384447  33.4544205  53.4345919  70.3100615
  34.1646033  54.2018740  70.0018097  32.7211380  52.6683878  69.4021557
  33.4598774  54.4682835  64.7419918  32.8255519  55.5262481  64.7266895
  34.6124651  54.3255444  64.0851867  35.1096075  53.4492828  64.1567018
  35.2418140  55.4207791  63.3524534  34.6963274  56.3499974  63.5170648
  36.6817814  55.6032886  63.8483700  37.3449175  54.7846063  63.5688901
  37.0350157  56.5281440  63.3923350  36.6744058  55.7545767  65.3553334
  36.4465459  56.9873836  65.9452690  36.3179517  57.8614511  65.3068578
  36.3812023  57.1197050  67.3194732  36.2184866  58.1011156  67.7649602
  36.5299460  56.0095465  68.1288764  36.4719587  56.1229027  69.4971471
  36.3231218  57.0239975  69.7929097  36.7306042  54.7734557  67.5709921
  36.8377602  53.8923796  68.2037029  36.7970134  54.6484976  66.1897418
  36.9481196  53.6681646  65.7378410  35.1739979  55.2124973  61.8441018
  35.8460185  55.9228385  61.0897094  34.3377332  54.2727000  61.3994421
  33.7870491  53.7712799  62.0816623  34.2044700  53.9020143  59.9970274
  35.1757334  53.9364535  59.5035088  33.6551931  52.4821775  59.8938558
  34.2449735  51.8604137  60.5674047  32.6218108  52.5121913  60.2392835
  33.7029253  51.9052995  58.5118227  32.9940699  52.4255333  57.8676321
  34.7077592  52.0064849  58.1017344  33.3376475  50.4529428  58.5860005
  32.3239441  50.3593108  58.9755353  33.3832695  50.0219078  57.5858870
  34.2419545  49.7121033  59.4552247  35.0414310  50.2109276  59.8186956
  34.0823124  48.4383009  59.7940708  33.0438807  47.7541233  59.3483863
  32.3680052  48.2027486  58.7466988  32.9306107  46.7855663  59.6113824
  34.9650803  47.8469092  60.5826079  35.7598790  48.3673572  60.9254328
  34.8400322  46.8777772  60.8380386  33.2883218  54.8831353  59.2659863
  32.2035065  55.2227682  59.7516315  33.7236894  55.3243285  58.0967534
  34.6107621  55.0141392  57.7266399  32.9630949  56.3017596  57.3354233
  32.6297770  57.0967812  58.0024607  33.8341785  56.9166226  56.2394320
  34.1681921  56.1340061  55.5582225  33.2550600  57.6561418  55.6864101
  34.7011223  57.3986498  56.6912699  31.7160339  55.6628329  56.7170016
  31.7201614  54.4763597  56.3691548  30.6327209  56.4377821  56.5534815
  30.5433253  57.9069811  56.6102330  31.4276359  58.3491574  56.1513481
  30.4714507  58.2331369  57.6478049  29.2571798  58.1949273  55.8138646
  29.4847353  58.3033579  54.7534117  28.7826092  59.1060816  56.1781199
  28.4013130  57.0191310  56.0638345  27.6631754  56.9098972  55.2692781
  27.8950623  57.0407069  57.0288963  29.3935707  55.8483479  56.0189164
  29.0974227  55.0354591  56.6819447  29.5573989  55.3163414  54.6117784
  28.9122157  54.3231043  54.2650628  30.4052359  55.9379288  53.7856896
  30.8590574  56.8076638  54.0259112  30.6093924  55.3990587  52.4482977
  29.6468529  55.2749831  51.9520898  31.4752079  56.3432393  51.6080879
  31.4493550  55.9594903  50.5882018  30.9893462  57.3184005  51.6412402
  32.9106465  56.4807404  52.0577040  33.1756246  55.5672637  52.5901021
  33.5367490  56.5783856  51.1708217  33.1287080  57.6689316  52.9596789
  32.1896956  58.0098155  53.7129318  34.2357485  58.2643119  52.9069651
  31.2051939  53.9975131  52.5115796  30.8589395  53.1437937  51.6847127
  32.0641891  53.7274836  53.5046216  32.4677852  54.4691265  54.0588556
  32.5036397  52.3533176  53.7579398  32.8767570  51.8990312  52.8400582
  33.6046809  52.3137405  54.8344049  33.2061852  52.7116199  55.7676752
  34.0732439  50.8885544  55.0522912  34.4723273  50.4901263  54.1195060
  34.8514223  50.8740349  55.8153956  33.2333632  50.2753211  55.3788556
  34.7801532  53.1975166  54.4343268  34.4062079  54.2130626  54.3042038
  35.5048247  53.1792426  55.2483396  35.4294485  52.7498495  53.1886002
  34.7054660  52.7683009  52.3739784  36.2594969  53.4153395  52.9514463
  35.8040809  51.7344793  53.3181138  31.3208234  51.4775133  54.1536002
  31.1113230  50.4001527  53.5870195  30.5313508  51.9280837  55.1362016
  30.7364121  52.7988426  55.6050600  29.3997036  51.1348067  55.6117930
  29.7378940  50.1464997  55.9232019  28.7492712  51.8288131  56.8097841
  28.5138238  52.8198487  56.4218250  27.8248923  51.3076051  57.0587138
  29.6086052  51.9645019  58.0615219  30.6364997  52.1668140  57.7605176
  29.1045772  53.1028043  58.9508972  28.0768263  52.9009606  59.2527019
  29.7347294  53.1784971  59.8370572  29.1425750  54.0410805  58.3974585
  29.6256407  50.6358720  58.7922979  30.0426240  49.8677185  58.1410187
  30.2380331  50.7221273  59.6898706  28.6085274  50.3614054  59.0720254
  28.3760694  50.8813164  54.5012013  27.7547937  49.8102360  54.4475998
  28.1772348  51.8495612  53.6115649  28.6298557  52.7467746  53.7127663
  27.2435282  51.6679790  52.5095319  26.4147888  51.0339775  52.8247021
  26.6832562  53.0192037  52.0648060  27.5641427  53.6544552  51.9721033
  26.1956784  52.9310968  51.0939275  25.7118996  53.6393378  53.0676650
  26.1533646  53.5879854  54.0629400  25.4250014  55.0901621  52.7151438
  24.9830634  55.1422852  51.7201198  24.7311385  55.5110497  53.4428173
  26.3548221  55.6587838  52.7293978  24.4242839  52.8225876  53.1523934
  24.6579343  51.8070806  53.4721628  23.7479778  53.2831695  53.8725153
  23.9466052  52.7937326  52.1730623  27.8714250  50.9452901  51.3282578
  27.1910249  50.7341379  50.3160882  29.1474922  50.5783309  51.4281304
  29.7212219  50.9507802  52.1712422  29.7513363  49.6489529  50.4935852
  30.5552897  49.1432672  51.0284124  28.9808329  48.9251475  50.2280109
  30.3096821  50.2589963  49.2290268  30.1627619  49.6763382  48.1492949
  30.9517277  51.4193851  49.3246001  31.0078709  51.9357817  50.1907882
  31.5618574  51.9984362  48.1339802  30.8309289  52.0228303  47.3257429
  32.0422206  53.4219851  48.4000663  32.3633082  53.9135586  47.4817214
  31.2691670  54.0211888  48.8811518  33.4654355  53.4562495  49.5101692
  33.6044841  54.7789418  49.5171588  32.7281172  51.1212599  47.6833477
  33.2518028  50.3004892  48.4482391  33.1362199  51.2950461  46.4180257
  32.7068845  51.9734773  45.8052440  34.1751200  50.4221263  45.8678524
  34.0607983  49.4142335  46.2668283  34.0670013  50.3590957  44.3350303
  33.0346412  50.6056770  44.0869790  34.7284637  51.1330980  43.9458156
  34.4392421  48.9935223  43.6994306  35.4863168  48.7887833  43.9226283
  33.8143011  48.2250948  44.1544799  34.2283693  48.9883394  42.1661058
  33.1955256  49.2783226  41.9731224  34.9001574  49.7318468  41.7371571
  34.5047110  47.6152353  41.5233194  33.8272945  46.9069099  42.0002708
  34.2478033  47.7087581  40.4681649  35.9235641  47.1190027  41.6530346
  36.1616764  47.0318623  42.6306894  36.0074107  46.2179668  41.2044769
  36.5513949  47.7749982  41.2107705  35.5812609  50.8541463  46.2909865
  36.4518706  49.9940042  46.4941106  35.8052759  52.1615974  46.4851150
  35.0171145  52.7912419  46.4356295  37.1362821  52.7306521  46.7262979
  37.8294689  51.9472314  47.0326363  37.6682932  53.3814779  45.4342390
  36.9750005  54.1689615  45.1387493  38.6401130  53.8199471  45.6609789
  37.8145394  52.3927404  44.3071485  38.6785684  51.2979976  44.4408089
  39.2405959  51.1900527  45.3684793  38.8263207  50.3732186  43.4372701
  39.4967260  49.5219238  43.5554048  38.1030260  50.5296088  42.2621169
  38.2667978  49.5882031  41.2607982  38.8901471  48.8965381  41.4945392
  37.2369861  51.6159906  42.0965653  36.6751272  51.7408308  41.1709142
  37.0968889  52.5367948  43.1209512  36.4207171  53.3836581  43.0038429
  37.1297661  53.7675874  47.8479648  36.2818554  54.6665284  47.8378392
  38.0738462  53.6591525  48.8053173  38.6379185  52.8282892  48.9129649
  38.3077491  54.7773074  49.7148402  37.3368240  55.2065577  49.9621211
  39.0345246  54.4128623  51.0269130  39.9513578  55.0023281  51.0337138
  38.3305894  54.8285272  51.7478830  39.3513248  52.9879410  51.3991040
  40.6611131  52.5544846  51.5035600  41.4645295  53.2570164  51.2820408
  40.9644003  51.2414834  51.8853592  41.9995205  50.9057763  51.9480394
  39.9280763  50.3630117  52.1895436  40.1753666  49.0519116  52.5671319
  41.1110325  48.8384089  52.5904875  38.6212140  50.8016048  52.1119028
  37.8030997  50.1217914  52.3499011  38.3489213  52.1096780  51.7303506
  37.3182191  52.4617904  51.6882814  39.1741766  55.8353311  49.0530159
  39.8604568  55.6050113  48.0533568  39.1664256  57.0105849  49.6600903
  38.3534132  57.3674344  50.1415138  40.3266352  57.8719875  49.5386078
  41.2199070  57.2610734  49.4084205  40.1961800  58.8135136  48.3329249
  39.7854782  58.2649553  47.4852770  39.5321610  59.6399098  48.5863968
  41.4813713  59.3252711  47.9895644  41.4003634  59.9140862  47.2356848
  40.5064550  58.6023030  50.8651876  39.9476153  58.1952692  51.8897942
  41.2784783  59.6913774  50.8391878  41.7077387  59.9723373  49.9691899
  41.5803611  60.4586532  52.0356541  42.2115449  59.8984203  52.7254695
  42.3096243  61.7373774  51.6368037  42.3438923  62.4073220  52.4959312
  43.7269900  61.4258274  51.1802722  43.6935201  60.7562531  50.3208248
  44.2306206  62.3509878  50.9000338  44.2737933  60.9467007  51.9923955
  41.5880086  62.3919281  50.5868112  42.0475013  63.1967013  50.3361981
  40.3579558  60.8089397  52.8817622  40.5167579  61.1028883  54.0747224
  39.1466812  60.7925247  52.3223613  38.9849111  60.5418193  51.3574383
  38.0108041  61.2410140  53.1201154  38.2670512  62.2219724  53.5203119
  36.7660348  61.3807889  52.2442784  36.4916621  60.4049675  51.8435387
  35.9427340  61.7721285  52.8418815  36.9747342  62.0650922  51.4219204
  37.7230288  60.3228789  54.3058698  37.1121117  60.7806112  55.2725752
  38.1436470  59.0506634  54.2721645  38.6140438  58.6604821  53.4680596
  37.8237244  58.1598436  55.3890681  36.8066312  58.2871762  55.7597525
  38.0215235  56.6842496  54.9904823  37.7167120  56.0460767  55.8198944
  37.1859607  56.3556788  53.7658639  37.4905332  56.9931775  52.9358446
  37.3341367  55.3105778  53.4940033  36.1325742  56.5270934  53.9874392
  39.4785933  56.3719417  54.7714924  40.0334828  56.5617787  55.6902751
  39.5880488  55.3242366  54.4914332  39.8702182  57.0034774  53.9740631
  38.6307824  58.5079017  56.6401009  38.1372686  58.3536809  57.7664872
  39.8608213  59.0009114  56.4750231  40.2928816  59.0365140  55.5627974
  40.6375218  59.4495202  57.6265723  40.6438209  58.6750733  58.3935740
  42.0823017  59.7407403  57.2136937  42.0297029  60.3117903  56.2867446
  42.5518522  60.3478325  57.9876843  42.9094605  58.4771934  56.9865497
  42.5720915  57.4017556  57.5444177  43.9272092  58.5807810  56.2575187
  40.0175996  60.6879944  58.2718530  40.0039751  60.8039819  59.5063813
  39.5155663  61.6292273  57.4524726  39.6020537  61.5302147  56.4510657
  38.9070084  62.8516409  57.9787999  39.5657809  63.3344198  58.7006326
  38.5832201  63.8348275  56.8441853  38.0895418  63.2922071  56.0379934
  37.6761429  64.9413979  57.3362980  38.1693618  65.4847997  58.1422448
  37.4597392  65.6261815  56.5163336  36.7449610  64.5114956  57.7053282
  39.8800096  64.4045086  56.2779855  40.4864815  63.5573052  55.9577681
  39.6107288  65.0065498  55.4101528  40.6724596  65.2526974  57.2553948
  40.9425169  64.6511671  58.1233407  41.5781221  65.6166337  56.7701887
  40.0667628  66.1004110  57.5757273  37.6695711  62.5131583  58.7829525
  37.4485310  63.0695624  59.8640467  36.8491076  61.5846673  58.2774201
  36.9711314  61.2279303  57.3404312  35.7096672  61.1086325  59.0563935
  35.0106785  61.9289366  59.2195349  34.9768774  59.9790446  58.3224615
  34.6061217  60.2985040  57.3485082  35.6458218  59.1279906  58.1947096
  33.7783994  59.4752819  59.0981597  33.7700196  58.4980641  60.0455774
  34.7234843  58.0156625  60.2607366  32.4985955  58.3286702  60.5447121
  32.2288474  57.6525530  61.2448556  31.6552659  59.2106582  59.9250312
  30.2845575  59.4073631  60.0856629  29.7552407  58.7928424  60.8138708
  29.6836299  60.3694736  59.3110382  28.6139321  60.5503451  59.4165461
  30.4101201  61.1248015  58.3883655  29.9261397  61.8870578  57.7777693
  31.7767305  60.9251563  58.2217706  32.2987460  61.5291974  57.4796555
  32.4190022  59.9505534  59.0044950  36.1547106  60.6386635  60.4376959
  35.5726716  61.0271478  61.4557606  37.1832706  59.7929326  60.4968270
  37.6121246  59.4174340  59.6630498  37.6745060  59.3382217  61.7910692
  36.8963181  58.7798249  62.3113729  38.8858734  58.4242490  61.5979037
  39.5889482  58.8970771  60.9121787  39.3715983  58.2607618  62.5599034
  38.4692819  57.1831967  61.0636849  39.2328354  56.6136599  60.9444637
  38.0239224  60.5234242  62.6768592  37.5131984  60.6528019  63.7951384
  38.8923097  61.4126761  62.1832677  39.3306182  61.2806867  61.2829545
  39.2681953  62.5810457  62.9704573  39.7914030  62.2619984  63.8718794
  40.1882652  63.5016817  62.1723203  39.7883809  63.4622846  61.1590881
  40.0707798  64.5098055  62.5697920  41.6666276  63.1344418  62.1490728
  41.8475720  62.4043013  61.3602415  42.4919416  64.3767370  61.8856336
  42.3118677  65.1072102  62.6743548  43.5496919  64.1140817  61.8689807
  42.2090787  64.8042581  60.9237008  42.0570831  62.4862988  63.4650744
  41.4645277  61.5840029  63.6162022  43.1152787  62.2258832  63.4425587
  41.8722028  63.1829573  64.2827450  38.0406199  63.3475045  63.4244138
  37.9880101  63.8294487  64.5567715  37.0377878  63.4732706  62.5577521
  37.0904121  63.1021623  61.6198776  35.8249105  64.1622723  62.9579652
  36.0849641  65.1796501  63.2502215  35.1461650  64.1919092  62.1056005
  35.1278908  63.4761333  64.1217465  34.6226111  64.1362113  65.0398420
  35.0914547  62.1360981  64.1038805  35.4453894  61.6048700  63.3211761
  34.4800012  61.4106739  65.2122985  33.4924342  61.8204939  65.4240957
  34.3297439  59.9349926  64.8597642  35.2973530  59.5340462  64.5579798
  33.9665912  59.3893879  65.7307038  33.2098299  59.5578831  63.5424131
  33.3876211  58.2404049  63.5816533  35.3013335  61.5665328  66.4812127
  34.7452166  61.6390966  67.5830705  36.6306388  61.6136085  66.3473916
  37.0553850  61.4577446  65.4443985  37.5074353  61.7824498  67.5065553
  37.2230339  61.1883181  68.3750151  38.9603748  61.4365104  67.0983754
  39.1820425  61.9429705  66.1589809  39.9748594  61.8749634  68.1688286
  39.7541019  61.3685303  69.1084521  40.9821254  61.6141555  67.8440286
  39.9080708  62.9532620  68.3134339  39.0788580  59.9294145  66.7569176
  38.9756212  59.3857367  67.6959902  38.2398504  59.6885593  66.1041124
  40.3813644  59.5269900  66.0783429  41.2208568  59.7671292  66.7307887
  40.3717908  58.4554306  65.8789236  40.4850870  60.0699540  65.1389114
  37.3646675  63.1966147  68.0817396  37.2758768  63.3830246  69.2991584
  37.3007870  64.2039406  67.2073696  37.5107035  64.0105442  66.2385392
  37.0067035  65.5862229  67.5915250  37.8218971  66.0079185  68.1795142
  36.8432015  66.4212334  66.3062913  37.7428155  66.3326911  65.6972313
  35.9872945  66.0447818  65.7461060  36.6059247  67.9037043  66.5164833
  36.8423490  68.5228865  67.7333576  37.2105608  67.9257883  68.5676199
  36.6160182  69.8897921  67.8999397  36.8037395  70.3614216  68.8645261
  36.1556551  70.6415885  66.8453246  35.9720588  71.7094253  66.9641388
  35.9235411  70.0269612  65.6156960  35.5655296  70.6171059  64.7720982
  36.1464762  68.6730103  65.4656863  35.9596749  68.1930573  64.5050353
  35.7649479  65.6718909  68.4769345  35.8097850  66.2413948  69.5736072
  34.6301543  65.1312085  68.0062595  34.5781396  64.7183640  67.0859589
  33.4116088  65.1742965  68.8178976  33.1940554  66.2120944  69.0703754
  32.2274024  64.6017348  68.0492694  32.4265032  63.5601274  67.7972518
  31.3305310  64.6607776  68.6659022  32.0767016  65.1740638  67.1339399
  33.5945659  64.4082612  70.1189720  33.0755278  64.8148852  71.1723330
  34.3320715  63.2892329  70.0535644  34.6889028  62.9674349  69.1651856
  34.5604963  62.4616120  71.2301684  33.6089384  62.2113771  71.6992304
  35.2715668  61.1543309  70.8311936  34.6664007  60.6990333  70.0472438
  36.2401791  61.4408247  70.4215454  35.4777036  60.1379931  71.9786569
  36.3143500  60.5076766  72.5714957  34.5730712  60.1404550  72.5867139
  35.7754303  58.7068644  71.5109386  35.6726083  58.4210595  70.2939386
  36.1025406  57.8585986  72.3780269  35.3427019  63.2361020  72.2858371
  35.0057224  63.1877684  73.4734598  36.3647974  63.9944899  71.8691963
  36.7052607  63.9571495  70.9190438  37.0566904  64.8612347  72.8188570
  37.4248726  64.2675982  73.6555988  38.2413014  65.5557326  72.1555144
  37.8882443  65.9411001  71.1989884  38.5228812  66.3881634  72.8003956
  39.4329446  64.6735290  71.9295514  39.7017126  64.2064744  72.8770346
  39.1602050  63.9021911  71.2093063  40.8505481  65.5985315  71.3004888
  40.4417605  65.9086790  69.5696029  39.5184490  66.4850572  69.5114386
  41.2497549  66.4694770  69.0997611  40.3099153  64.9590222  69.0510761
  36.1111808  65.8994640  73.4138407  36.2029289  66.2177399  74.6034910
  35.2005893  66.4462139  72.6025449  35.1488147  66.1914279  71.6265824
  34.3096606  67.4984265  73.0930901  34.8433430  68.2282055  73.7019456
  33.6285639  68.2366317  71.9231929  33.2144240  67.5020395  71.2325687
  32.5125421  69.1331142  72.4387825  32.9260121  69.8683156  73.1291609
  32.0420021  69.6469684  71.6005424  31.7689666  68.5272025  72.9565355
  34.6433196  69.0415197  71.1447277  35.4079639  68.3749055  70.7459213
  34.1461376  69.5563193  70.3226018  35.1088495  69.7747287  71.8033530
  33.2801847  66.9228605  74.0551874  33.0043228  67.5104142  75.1066120
  32.6892239  65.7731881  73.7104444  32.9739074  65.2920573  72.8692739
  31.5831631  65.2207787  74.4814984  31.1343347  66.0042552  75.0920856
  30.5079977  64.6571880  73.5369197  29.6194492  64.4180760  74.1212204
  30.1498811  65.6602558  72.4628800  31.0378929  65.8995235  71.8778283
  29.3877987  65.2365251  71.8088296  29.7655220  66.5685738  72.9269135
  30.9965596  63.4748516  72.9000674  30.3226790  63.1265569  72.3117002
  32.0099438  64.1419554  75.4724216  31.2342195  63.8130511  76.3724454
  33.2143687  63.5916816  75.3379586  33.7702218  63.8396057  74.5319436
  33.7262319  62.5555464  76.2450028  34.7232723  62.2488916  75.9288189
  33.8096894  63.0886344  77.6798815  32.9757202  63.7727137  77.8368210
  33.7187451  62.2432060  78.3618492  35.1422889  63.8291193  77.9511504
  35.6696355  63.3113284  78.7523364  35.7449298  63.8019137  77.0433035
  34.8987686  65.2856525  78.3585257  35.8417398  65.7531326  78.6420159
  34.4578793  65.8339056  77.5259786  33.9830664  65.3481263  79.4984961
  34.3006151  64.9142167  80.3534725  32.7743484  65.8985383  79.4780412
  32.3325869  66.4766967  78.3698180  32.9171215  66.4959259  77.5463803
  31.4135386  66.8952680  78.3540759  32.0215781  65.8975553  80.5787505
  32.3734018  65.4772645  81.4270875  31.1030524  66.3171042  80.5590516
  32.9103460  61.2612088  76.1736216  32.7550182  60.5482263  77.1725657
  32.4239259  60.9517263  74.9716523  32.6423203  61.6063690  74.2341930
  31.6149814  59.7890514  74.6439379  31.9690723  58.9314230  75.2159452
  30.1188121  60.0239523  74.9779382  30.0543653  60.0243895  76.0660309
  29.8832594  61.0188798  74.6001364  29.1034691  58.9953406  74.3986234
  28.0969741  59.4004617  74.5032451  29.3249265  58.8421312  73.3424106
  29.1949845  57.6468388  75.1440233  30.1727327  57.2257443  74.9099574
  29.1432042  57.8738595  76.2088613  28.1603567  56.6458596  74.8234238
  27.1991473  56.9551355  74.8463177  28.4145979  55.3741020  74.4901296
  29.6732615  54.9373388  74.4135156  30.4366275  55.5694595  74.6079269
  29.8567419  53.9766583  74.1614687  27.4084861  54.5301955  74.2514140
  26.4543512  54.8536414  74.3228937  27.6058778  53.5720093  74.0003873
  31.8280705  59.5832770  73.1552832  31.8499356  60.5611516  72.4114134
  32.0192227  58.3438641  72.7199370  32.1354346  57.5539976  73.3385687
  32.1014688  58.1145571  71.2856819  32.9639380  58.6353783  70.8697596
  32.2333263  56.6298083  70.9749931  31.3723300  56.0960251  71.3773126
  32.2770112  56.4864769  69.8953413  33.1451634  56.2425264  71.4295973
  30.8591142  58.6799116  70.6180807  29.7584036  58.6234049  71.1704547
  31.0399695  59.2506602  69.4282338  31.9557703  59.2976158  69.0049095
  29.9205527  59.8829914  68.7309942  29.3473773  60.4955946  69.4269012
  30.4396703  60.7810022  67.5999272  31.0569934  61.5058660  68.1305719
  31.0764365  60.1376950  66.9926506  29.4461460  61.5222728  66.6916892
  28.7673391  60.8059699  66.2288370  28.6671489  62.4851110  67.5074075
  29.3452803  63.2020651  67.9702395  27.9601064  63.0145555  66.8687524
  28.1226857  61.9474015  68.2836346  30.1528654  62.2501233  65.5721128
  30.7057560  61.5338005  64.9644179  29.4184813  62.7625708  64.9506800
  30.8449459  62.9798511  65.9923757  28.9559009  58.8432470  68.1840440
  27.7433458  58.9835863  68.3177791  29.4797726  57.7982589  67.5652102
  30.4844180  57.6962335  67.5846492  28.6961106  56.7984499  66.8446745
  27.6355538  56.9459644  67.0485322  28.9244947  56.9159686  65.3403793
  29.9858022  56.7890603  65.1267915  28.3531674  56.1593533  64.8025890
  28.5290798  58.2354028  64.7688564  27.2884516  58.7885422  65.0580905
  26.6105275  58.2542600  65.7237190  26.9053018  60.0136929  64.5076905
  25.9284260  60.4359228  64.7433517  27.7587525  60.6854504  63.6704463
  27.4658783  61.6424431  63.2386019  29.0052762  60.1391299  63.3726247
  29.6837380  60.6694276  62.7043626  29.3842709  58.9226190  63.9244708
  30.3625458  58.5007676  63.6939938  29.1076006  55.4145773  67.3238975
  29.8390821  54.6954505  66.6326302  28.6602230  55.0067546  68.5040470
  27.8599917  55.7987832  69.4549695  26.8598532  55.9520471  69.0495888
  28.3380227  56.7649700  69.6164264  27.8565686  54.9434754  70.6985735
  26.9142567  54.3983285  70.7529990  27.9547687  55.5864899  71.5732108
  29.0272433  54.0065586  70.5871128  28.8270775  53.0784016  71.1224232
  29.9606769  54.4390715  70.9472989  29.1254648  53.7295062  69.0822448
  30.1565734  53.5796829  68.7621415  28.2796898  52.5278397  68.6548501
  27.6752387  51.8440889  69.4811682  28.2528994  52.2461749  67.3521992
  28.8127219  52.7611492  66.6877448  27.4014483  51.1722386  66.8534829
  26.4057627  51.3060364  67.2763393  27.3492723  51.2583690  65.7681449
  27.9110080  49.7854864  67.2160866  29.1075456  49.5510211  67.3884604
  26.9834149  48.8354986  67.3360917  25.9984899  49.0591477  67.3378894
  27.3794650  47.4517621  67.5813604  28.4451374  47.4183939  67.8079172
  26.6064053  46.8406022  68.7626077  27.0041758  45.8390941  68.9264963
  26.8099004  47.4593199  69.6366090  25.1117038  46.7591342  68.5395643
  24.6148651  46.9425469  67.4020605  24.4172816  46.5013925  69.5439905
  27.2482669  46.5608132  66.3535623  27.5412804  45.3678453  66.4395770
  26.8487369  47.1028254  65.2126747  26.5088418  48.0537520  65.1950860
  26.8674439  46.3546880  63.9668941  27.7333687  45.6926663  63.9677845
  25.6055756  45.5095191  63.7719165  25.7513326  44.8613609  62.9077724
  25.4551155  44.8988847  64.6621903  24.4653481  46.3281938  63.5618904
  23.6907910  45.7736485  63.4429761  26.9899781  47.3698938  62.8577339
  26.8608609  48.5721342  63.0828044  27.2223297  46.8881065  61.6475567
  27.3936241  45.9099924  61.4630290  27.3270970  47.8289606  60.5394745
  28.0558315  48.6044021  60.7755586  27.7811303  47.1010355  59.2771878
  26.9817851  46.4185099  58.9885613  27.9163040  47.8515075  58.4983297
  29.0691611  46.3226797  59.4573209  29.7888627  46.9980061  59.9199923
  28.8936461  45.4725208  60.1165048  29.6177787  45.8302374  58.1338242
  30.1052350  46.6755591  57.3496613  29.5361783  44.6069651  57.8618625
  26.0083043  48.5685313  60.3201187  25.9941907  49.7839623  60.0776454
  24.8817935  47.8613320  60.4109956  24.8600097  46.8601384  60.5422823
  23.6229405  48.5553833  60.1911710  23.6911791  49.2531860  59.3565969
  22.4836514  47.5514655  59.9290212  22.7654416  46.9147843  59.0903725
  22.2250930  46.7016802  61.1361225  21.9427777  47.3376665  61.9751221
  21.4164817  46.0026536  60.9225569  23.1277021  46.1457928  61.3898647
  21.2123121  48.2936116  59.4986997  20.4386889  47.5402541  59.3501725
  20.9294941  48.9461203  60.3247419  21.3665489  49.1238665  58.2233375
  21.6489263  48.4719262  57.3966957  20.4210563  49.6143687  57.9919273
  22.1397336  49.8777914  58.3712645  23.3335476  49.4858191  61.3645537
  22.8604348  50.6153867  61.1758228  23.6559766  49.0457352  62.5905063
  23.9838449  48.1015848  62.7360452  23.4800525  49.9067537  63.7598822
  22.4574998  50.2832710  63.7867120  23.7503342  49.1321072  65.0528163
  23.0918560  48.2635590  65.0642069  24.7884658  48.8001901  65.0381909
  23.5030323  49.9745802  66.3028599  22.3594601  50.4699256  66.4624985
  24.4461258  50.1471230  67.1235210  24.3829736  51.1257385  63.6816611
  23.9649204  52.2341417  64.0361902  25.6250341  50.9435982  63.2179030
  25.9862660  50.0155798  63.0494016  26.5132153  52.0816506  63.0020677
  26.6742951  52.6093711  63.9421016  27.8686351  51.6063656  62.4689493
  28.2131507  50.8123842  63.1315213  27.6961867  51.1984769  61.4729631
  28.9477173  52.7205042  62.3919626  29.8189036  52.3136903  61.8785060
  28.5510780  53.5613566  61.8229754  29.3819405  53.2228889  63.7657697
  29.3305805  52.4862173  64.7478751  29.7969221  54.4769082  63.8375674
  30.0950719  54.8569548  64.7245695  29.8136976  55.0485177  63.0050516
  25.8838508  53.0842506  62.0449055  25.8313955  54.2862338  62.3292710
  25.3838523  52.6033008  60.9031074  25.4922678  51.6305264  60.6539983
  24.7166037  53.4894791  59.9559347  25.4180747  54.2381827  59.5878578
  24.1920783  52.6876351  58.7688672  23.9881497  51.6991550  59.1804732
  23.2595126  53.1391928  58.4304640  25.1498750  52.5593304  57.5920139
  26.0391909  52.0180690  57.9148980  24.4863797  51.8072500  56.4475721
  23.5971813  52.3481822  56.1238172  25.1839028  51.7239415  55.6141322
  24.2021164  50.8101440  56.7838377  25.6016060  53.9398843  57.1517321
  26.1081512  54.4378414  57.9785030  26.2870985  53.8469741  56.3093730
  24.7344292  54.5276591  56.8506935  23.5813857  54.2537049  60.6222049
  23.4893483  55.4804173  60.4922822  22.6999734  53.5397755  61.3413233
  22.8116157  52.5438888  61.4672001  21.5141872  54.1828078  61.9107638
  20.9710300  54.7038780  61.1223697  20.5803746  53.1570782  62.5511558
  21.1546603  52.4456078  63.1445402  19.8518790  53.6571716  63.1893569
  19.7983744  52.3530185  61.5558741  19.9570763  52.5681290  60.1880165
  20.6549386  53.3307978  59.8424381  19.2318343  51.8170033  59.2642995
  19.3633960  51.9892894  58.1960721  18.3448529  50.8525829  59.7047689
  17.7775487  50.2640978  58.9836925  18.1767176  50.6337086  61.0638604
  17.4759791  49.8755595  61.4135399  18.9021987  51.3816184  61.9784341
  18.7728308  51.2105459  63.0471239  21.8965124  55.2380236  62.9319401
  21.2707958  56.3046706  63.0015231  22.9106840  54.9590184  63.7474725
  23.3428806  54.0470481  63.7876682  23.3589996  55.9777569  64.6872873
  22.5101538  56.3547098  65.2577840  24.3804196  55.3900912  65.6617699
  25.1602711  54.8942416  65.0837871  24.8178330  56.2076632  66.2347842
  23.7456960  54.3968693  66.6063132  22.9612215  54.9126494  67.1600925
  23.3038234  53.5991985  66.0091766  24.7476958  53.8028138  67.5825353
  25.6277316  53.4699614  67.0322215  25.0383572  54.5661951  68.3042447
  24.1901549  52.6647838  68.3049651  24.4166849  51.7401558  67.9675534
  23.4174204  52.7752759  69.3738195  23.1014421  53.9738446  69.8522029
  23.4529583  54.8043965  69.3975382  22.5111806  54.0489087  70.6683257
  22.9549938  51.6836317  69.9568663  23.1937187  50.7758592  69.5839593
  22.3648918  51.7619145  70.7728014  23.9174162  57.1841428  63.9434636
  23.7089202  58.3255148  64.3642789  24.5974806  56.9635023  62.8197131
  24.8993937  56.0436724  62.5318575  25.0072388  58.1083230  62.0158942
  25.4768091  58.8619078  62.6481227  25.9855246  57.6861521  60.9109980
  25.5809248  56.8282097  60.3740304  26.1831469  58.8420330  59.9433132
  26.5881871  59.7002558  60.4795003  26.8776559  58.5442355  59.1577722
  25.2254811  59.1114744  59.4979182  27.3245059  57.2606677  61.5316034
  27.8339902  58.1684868  61.8546993  27.0963755  56.6437355  62.4007700
  28.2076738  56.4997507  60.5999056  28.4366310  57.1162522  59.7306505
  29.1333592  56.2349315  61.1108621  27.6990149  55.5915015  60.2767193
  23.7890337  58.8170416  61.4414465  23.7254011  60.0502726  61.4157335
  22.8007293  58.0606895  60.9700698  22.8613309  57.0540328  60.9146710
  21.6010860  58.7100271  60.4565841  21.8735324  59.4244895  59.6797858
  20.6478297  57.6837041  59.8608076  20.4168288  56.9213218  60.6047908
  19.7249544  58.1622322  59.5330698  21.1981369  56.9738316  58.6836058
  22.3530752  57.4190748  58.0743431  22.8563895  58.3023113  58.4676213
  22.8694207  56.7629681  56.9845246  23.7867103  57.1216717  56.5176066
  22.2312616  55.6557732  56.4827404  22.6421734  55.1317540  55.6198063
  21.0686249  55.2069877  57.0723770  20.5528996  54.3344762  56.6713141
  20.5578554  55.8652282  58.1730745  19.6420096  55.5089607  58.6446673
  20.9002303  59.5040834  61.5488373  20.4440324  60.6274224  61.3076174
  20.7994225  58.9373012  62.7610372  21.1680937  58.0157694  62.9480130
  20.0634369  59.6185810  63.8252125  19.0400005  59.8047185  63.4995903
  20.0247248  58.7617054  65.1054119  20.9366241  58.1647157  65.0934869
  20.0623294  59.4649645  65.9373449  18.7974752  57.8273840  65.2735367
  17.9037487  58.4177165  65.0713946  18.8835071  57.0336289  64.5314765
  18.6927543  57.1919539  66.7124395  19.5784170  57.4835089  67.2769713
  17.8041043  57.5958764  67.1974625  18.5991164  55.7088367  66.7059976
  17.7554880  55.3229564  66.3066396  19.5231355  54.8623171  67.1955547
  19.3358521  53.5340604  67.1309944  18.4942330  53.1656257  66.7114312
  20.0374704  52.9095890  67.5022987  20.6309236  55.3441978  67.7684504
  20.7698251  56.3426125  67.8314942  21.3237972  54.7076006  68.1355592
  20.6471305  61.0009668  64.1175558  19.9208512  61.8965802  64.5597560
  21.9361445  61.2144550  63.8577645  22.5115784  60.4793873  63.4722121
  22.5676767  62.4905602  64.1805364  21.9681913  63.0456897  64.9020262
  23.9654011  62.2586609  64.7780105  24.5867905  61.7537340  64.0383997
  24.6088256  63.5805726  65.1620877  23.9881990  64.0858994  65.9020654
  25.5971241  63.3954977  65.5829352  24.7033555  64.2099162  64.2771632
  23.8648864  61.4214035  65.9335441  24.7395382  61.2794916  66.3029294
  22.6772949  63.4222232  62.9767254  22.2808539  64.5880039  63.0595438
  23.2166680  62.9394068  61.8595898  23.5238753  61.9775157  61.8374866
  23.4323683  63.7589808  60.6787270  23.6480303  64.7871682  60.9692777
  24.6218061  63.2159838  59.8817088  24.3603063  62.1839506  59.6479898
  24.7498380  63.7764545  58.9556525  25.9232110  63.2428431  60.6757017
  25.8032253  62.6354303  61.5727825  27.0658858  62.6945615  59.8436652
  27.1867894  63.3017795  58.9465768  27.9863260  62.7216577  60.4268944
  26.8472281  61.6655029  59.5584854  26.2095351  64.6683672  61.1518042
  25.3926418  65.0107903  61.7870453  27.1404233  64.6825723  61.7186785
  26.2998175  65.3287805  60.2893645  22.2126223  63.8357209  59.7777016
  22.1789125  64.6888478  58.8829993  21.2167453  62.9762760  60.0014433
  21.2906556  62.3470210  60.7880022  20.0329706  62.9008853  59.1708330
  19.1634227  62.6835811  59.7911270  19.8843178  63.8510175  58.6577535
  20.1888595  61.8062741  58.1424785  21.2854516  61.6108890  57.6116570
  19.1224767  61.0716103  57.8690144  18.2697126  61.1661443  58.4018897
  19.1659064  60.0796484  56.8101468  19.9339279  59.3389645  57.0329236
  17.8310417  59.3688740  56.6750329  17.0656168  60.0949444  56.4010860
  17.9155411  58.2924203  55.6027711  18.6804902  57.5656801  55.8762693
  16.9523416  57.7897639  55.5151219  18.1744063  58.7496633  54.6477747
  17.5029544  58.7718840  57.9298654  16.6597982  58.3185630  57.8578379
  19.5305993  60.7604806  55.4970346  18.8204258  61.6853255  55.0640479
  20.6141382  60.3501175  54.8494308  21.4820036  59.2192082  55.2011972
  20.8709261  58.3420756  55.4140893  22.0728875  59.4720887  56.0815419
  22.3257410  59.0483532  53.9778147  21.8558711  58.3244287  53.3120410
  23.3132854  58.6883279  54.2663267  22.4140293  60.3859311  53.3468276
  22.5510748  60.2500577  52.2740481  23.2057704  61.0263870  53.7354944
  21.0470427  61.0202063  53.6208451  21.0980268  62.0923385  53.8106648
  20.0868709  60.7551049  52.4770614  19.3205050  59.7921041  52.4866470
  20.1388232  61.6323213  51.4757257  20.6367519  62.5026517  51.5969344
  19.4087690  61.4196848  50.2274178  19.3359056  60.3472466  50.0466795
  17.9779305  62.0159719  50.2538129  17.5145258  61.7824105  49.2952701
  17.4315690  61.5145892  51.0526900  17.9411385  63.5353237  50.4836180
  18.9893754  64.2212958  50.4066911  16.8286791  64.0478650  50.7502346
  20.2353581  61.9845544  49.0816783  21.3333558  62.5159160  49.2872624
  19.6949884  61.8656167  47.8600595  18.7754169  61.4659139  47.7387118
  20.4449638  62.2483387  46.6696365  21.3947657  61.7138641  46.6519591
  19.6723310  61.9116195  45.3979075  18.6696108  62.3212264  45.5198646
  20.1759476  62.4232066  44.5776948  19.5781895  60.4244556  45.0864241
  19.2513007  59.9139136  45.9922891  18.8249143  60.3008220  44.3083557
  20.8891026  59.8303633  44.6179892  21.7224140  60.5654724  44.0455771
  21.0860257  58.6174953  44.8303275  20.8044460  63.7215188  46.6653072
  21.8136711  64.0840810  46.0594406  20.0289764  64.5747867  47.3381027
  19.1556529  64.2808442  47.7516281  20.3826879  65.9910473  47.4000142
  20.6510683  66.3786526  46.4172460  19.2134831  66.8205036  47.9523332
  18.7445762  66.2802028  48.7747082  19.7255067  68.1634075  48.4544278
  20.1941690  68.7045232  47.6324483  18.8922516  68.7475594  48.8450083
  20.4572235  68.0010027  49.2458297  18.1751813  67.0003866  46.8672058
  17.8114500  66.0242781  46.5462481  17.3429100  67.5885271  47.2538773
  18.6219017  67.5181642  46.0184136  21.6608011  66.2072246  48.2137605
  22.5769979  66.9204553  47.7757818  21.7508252  65.6188175  49.4126357
  21.0273524  65.0476509  49.8254978  22.9556160  65.8798713  50.1929319
  23.3720956  66.8704653  50.0102644  22.7620582  65.7000249  51.7070444
  23.6336231  66.1013194  52.2241871  21.5052052  66.4323669  52.1825153
  20.6331055  66.0312743  51.6661166  21.3869398  66.2921561  53.2569709
  21.5991155  67.4960178  51.9635878  22.7649962  64.2218728  52.0818760
  23.7169072  63.7754747  51.7943065  22.6265165  64.1191533  53.1581528
  21.9536683  63.7129277  51.5614696  24.1028352  64.9984628  49.7516020
  25.2660480  65.3411210  49.9926691  23.8211233  63.8852936  49.0946706
  22.8640678  63.6684698  48.8556484  24.8558267  62.9141645  48.7554506
  25.8117628  63.4215765  48.6257644  24.9995940  61.8802653  49.8687431
  25.1415762  62.3677127  50.8332820  24.1100790  61.2514842  49.9074408
  26.1352026  60.9852904  49.6825547  27.0371236  61.0125474  48.6694681
  26.9014575  61.7824614  47.9099111  27.9641782  60.0157078  48.8356357
  28.7354672  59.8117650  48.2162650  27.6663597  59.3340784  49.9881454
  28.3107514  58.2550569  50.5834445  29.2007785  57.8525135  50.0998029
  27.7839330  57.7640826  51.7451555  28.2570353  56.9117957  52.2328862
  26.6469087  58.3316620  52.3260036  26.2394509  57.9420184  53.2588784
  26.0011282  59.4103166  51.7316722  25.1241134  59.8268891  52.2270641
  26.5146445  59.9211791  50.5387759  24.5150707  62.2592661  47.4279950
  24.0170321  61.1252762  47.3837742  24.8083487  62.9304821  46.3135897
  25.6598864  64.1275266  46.2008378  26.6938894  63.8661432  46.4258197
  25.3177922  64.8897684  46.9008793  25.4690527  64.5330176  44.7837858
  26.3793729  65.0142540  44.4262555  24.6390491  65.2370394  44.7242149
  25.1711556  63.2943729  44.0147120  26.1247573  62.8657891  43.7063959
  24.5408282  63.4450923  43.1383156  24.4754864  62.3575133  45.0026941
  23.3921088  62.3525904  44.8828313  25.0023164  60.9387947  44.8922693
  26.1411041  60.6536633  45.2518967  24.1555635  60.0407370  44.4142810
  23.2216842  60.3241788  44.1542242  24.5206965  58.6552305  44.2486835
  23.9798213  58.2888360  43.3761537  25.5916874  58.6334204  44.0471841
  24.2223502  57.7521194  45.4290961  24.2470871  56.5243230  45.2739374
  23.9260744  58.3090820  46.6018652  23.8350313  59.3088079  46.7130340
  23.8219906  57.4673407  47.7919119  24.7247688  56.8781108  47.9528433
  23.5630014  58.3235577  49.0458935  24.2867311  59.1380459  49.0762840
  22.1501072  58.8998619  49.0129618  21.4257562  58.0859082  48.9830281
  21.9820485  59.5024581  49.9055617  22.0320439  59.5233800  48.1267407
  23.7795146  57.4966672  50.2945500  24.8067364  57.1327425  50.3163700
  23.5937366  58.1117613  51.1750303  23.0942542  56.6490137  50.2929715
  22.7483432  56.3951968  47.6239395  22.9097457  55.2700187  48.1078965
  21.6359887  56.7128718  46.9529021  21.4875958  57.6280088  46.5521488
  20.5578406  55.7288710  46.8532272  20.4165662  55.2189686  47.8061911
  19.2433637  56.3995630  46.4589397  18.4884985  55.6297178  46.2988859
  18.7762097  57.3470603  47.5500369  19.5304050  58.1175090  47.7103427
  17.8384834  57.8142882  47.2492601  18.6239823  56.7903836  48.4747198
  19.4360164  57.1152254  45.2386663  18.6137893  57.5400916  44.9836532
  20.8659424  54.6033673  45.8735131  20.1208170  53.6241220  45.8288866
  21.9591634  54.6953373  45.1223245  22.4845903  55.5577181  45.1403588
  22.3934793  53.6410916  44.2164366  21.5877582  52.9274663  44.0442403
  22.7836057  54.2669270  42.8817724  23.6345112  54.9325916  43.0265125
  23.0535252  53.4812319  42.1761332  21.6846079  55.0080479  42.3677290
  21.9295967  55.4023298  41.5274183  23.5467385  52.7944393  44.7755779
  24.0288746  51.8965806  44.0823595  23.9795609  53.0388806  46.0330353
  23.5301644  53.7635355  46.5743461  25.0981897  52.3231808  46.6313959
  25.9082237  52.2352864  45.9073663  25.6173829  53.0648675  47.8541376
  24.8313482  53.0604214  48.6092727  26.4859779  52.5251254  48.2313925
  26.0060207  54.4856810  47.5431787  26.5246706  54.4775237  46.5845147
  25.0848694  55.0613106  47.4524443  27.0562778  55.2474127  48.7730848
  28.5903758  54.3374967  48.5238255  28.9391353  54.4853139  47.5017609
  29.3458110  54.7000090  49.2209648  28.4159764  53.2756770  48.6976785
  24.7100744  50.9046619  47.0359468  23.5878802  50.6664835  47.4813682
  25.6548790  49.9609628  46.9418549  27.1088806  50.1631040  46.7605835
  27.5281848  50.6004379  47.6666869  27.2776309  50.8371058  45.9207360
  27.6216596  48.7892239  46.4981848  28.6365661  48.6959423  46.8846590
  27.6227896  48.5963423  45.4253862  26.6795759  47.8650417  47.2065453
  26.9552277  47.7507382  48.2549011  26.6515219  46.8852031  46.7298599
  25.3030442  48.5400852  47.0989323  24.7781763  48.2416328  46.1914423
  24.4375050  48.2331718  48.3072460  23.5581693  47.3578739  48.2303155
  24.6587341  48.9198185  49.4286862  25.3564530  49.6500098  49.4390867
  23.9984179  48.5758438  50.6839464  23.3935166  47.6776734  50.5595136
  25.0542777  48.3092722  51.7593373  25.6965988  49.1796487  51.8933803
  24.5008001  48.1216649  52.6794276  25.9083412  47.0959598  51.4255462
  25.4091947  45.9592702  51.5636889  27.0564132  47.2687483  50.9707706
  22.9866293  49.6204898  51.1449005  22.4968102  49.5366912  52.2774569
  22.6477299  50.5837866  50.2910742  23.1853071  50.7417684  49.4507458
  21.5143933  51.4540765  50.5579688  21.6039302  51.8737347  51.5599515
  21.4587245  52.6025642  49.5504976  22.4012309  53.1466597  49.6116624
  21.3606380  52.1569178  48.5606095  20.3012338  53.5637474  49.7913543
  19.0710343  53.3910106  49.1558528  18.9438434  52.5547979  48.4683426
  18.0154528  54.2668932  49.3886905  17.0579946  54.1232725  48.8879423
  18.1918179  55.3381046  50.2577695  17.1627303  56.2304744  50.5152495
  16.3562105  56.0205756  50.0387331  19.4021596  55.5219782  50.8906941
  19.5415600  56.3629338  51.5700038  20.4404176  54.6378410  50.6629316
  21.3945167  54.7748924  51.1718637  20.2256535  50.6500963  50.4919502
  20.0469955  49.8047456  49.6111814  19.3306708  50.9134784  51.4371194
  19.5897487  51.5271722  52.1963018  18.0000751  50.3279614  51.4475986
  17.8358612  49.7800358  50.5197460  17.8337535  49.3589635  52.6251071
  17.9797113  49.9310518  53.5413552  16.8125208  48.9792678  52.5932474
  18.8189548  48.1806682  52.5951147  19.8342840  48.5734636  52.6491456
  18.6292428  47.5452542  53.4601930  18.6550130  47.3456778  51.2929695
  17.7930866  46.6921769  51.4275744  18.4583747  48.0423282  50.4780394
  19.9032740  46.4907504  50.9519307  20.7397490  46.8902208  51.5253708
  19.6978965  45.4696241  51.2732100  20.2554189  46.4952150  49.4718230
  20.4461829  47.4412702  49.1740169  21.0732151  45.9226436  49.3186189
  19.4806167  46.1246957  48.9403195  16.9988720  51.4697123  51.5337734
  17.0373068  52.2430831  52.5053131  16.0928391  51.6384068  50.5712052
  15.7349899  50.7307190  49.4747200  15.0936570  49.9301471  49.8433349
  16.6343643  50.3010818  49.0335437  15.0235374  51.6495926  48.5364376
  14.3543027  51.0819724  47.8898843  15.7437338  52.1934469  47.9251759
  14.2644080  52.5824574  49.4230422  13.3139804  52.1229021  49.6943268
  14.0799557  53.5546097  48.9658805  15.1394163  52.7493174  50.6739604
  15.7023970  53.6824715  50.6546127  14.3202323  52.6826998  51.9407128
  13.6985175  53.6851460  52.3244489  14.3157984  51.5269383  52.6080490
  14.8046799  50.7366805  52.2123385  13.5828984  51.3332393  53.8481487
  12.6345954  51.8696440  53.8151216  13.2958015  49.8461289  54.0420258
  12.8453753  49.6936996  55.0228320  12.6038545  49.5116859  53.2690722
  14.4925134  49.1045924  53.9541790  14.3008548  48.1720188  54.0773589
  14.3111217  51.8897300  55.0691995  13.7739159  51.7990980  56.1776560
  15.4946536  52.4659448  54.9061237  15.9817802  52.4371193  54.0218296
  16.1276551  53.1549862  56.0200991  16.4432959  52.4266313  56.7670725
  17.3551146  53.9407596  55.5541362  17.1109717  54.5199719  54.6636271
  17.6905785  54.6132362  56.3436546  18.5149252  53.0896077  55.2012540
  18.5543472  51.7637638  55.6035287  17.7218905  51.3574033  56.1779736
  19.6277360  50.9623562  55.2860129  19.6513060  49.9206477  55.6059952
  20.6772591  51.4844188  54.5587145  21.5312598  50.8551953  54.3079947
  20.6466691  52.8066987  54.1470968  21.4728911  53.2190697  53.5679530
  19.5654716  53.6034127  54.4722933  19.5400756  54.6449676  54.1519524
  15.1335912  54.1211408  56.6544745  14.5254354  54.9260541  55.9380116
  14.9563943  54.0941596  57.9751483  15.6175346  53.2202815  58.9585203
  16.6539196  53.5324664  59.0871553  15.5902439  52.1885458  58.6079842
  14.7968032  53.4253292  60.1958519  15.4169572  53.2767963  61.0798463
  13.9678341  52.7177434  60.2111448  14.2947756  54.8365746  60.1096272
  15.0825795  55.4816502  60.4986535  13.3667513  55.0330880  60.6465193
  14.0983879  55.0990385  58.6128044  13.0677574  54.9462979  58.2925399
  14.5504193  56.4991090  58.2165227  15.7098448  56.7250049  57.8622494
  13.6252010  57.4468729  58.2699962  12.6854939  57.1978677  58.5439421
  13.8935072  58.8349747  57.8958687  14.8153057  58.8979949  57.3175822
  12.7472152  59.3664357  57.0443050  11.9659695  58.6067511  57.0694774
  12.3900155  60.2706712  57.5371199  13.0961525  59.6793433  55.6145425
  12.1810495  60.0106204  55.1236834  13.8164812  60.4972738  55.6293197
  13.6827255  58.5011812  54.8512607  14.6150890  58.1946883  55.3254540
  12.9754371  57.6720795  54.8720721  13.9595545  58.9057539  53.3837637
  12.9898466  59.0628058  52.9114271  14.5053781  59.8487607  53.4139966
  14.7342397  57.9114421  52.6026261  14.2284377  57.0376848  52.5741263
  14.8688932  58.2533641  51.6618510  15.6329971  57.7660879  53.0398976
  14.0838333  59.6535955  59.1800719  13.1108291  59.9663240  59.8717957
  15.3355502  59.9937888  59.5131278  16.0928913  59.6798764  58.9232186
  15.6612939  60.7945607  60.6914374  14.7754757  60.8838022  61.3202944
  16.7845462  60.1582176  61.5156345  17.5302388  59.7976234  60.8071053
  17.2413926  60.8895149  62.1824145  16.4036340  59.0021286  62.3534817
  15.7422636  59.0329592  63.5509326  15.4416503  60.0119298  63.9242262
  15.5961898  57.7531653  64.0433887  15.1453023  57.5018816  64.9115226
  16.1747498  56.8750831  63.1633086  16.2845460  55.4868284  63.2223321
  15.8486583  54.9625328  64.0727524  16.9422663  54.8643673  62.1931698
  17.0535472  53.7801429  62.2063567  17.4801748  55.5928167  61.1146848
  18.0012822  55.0860083  60.3024707  17.3647730  56.9649532  61.0528717
  17.7879894  57.4815475  60.1914084  16.7045881  57.6302262  62.0916294
  16.1145498  62.1908777  60.2892895  16.8672412  62.3553055  59.3258782
  15.7024585  63.1921094  61.0571317  15.0739111  63.0303363  61.8309902
  16.1199771  64.5624898  60.7798683  16.1435295  64.7084004  59.6999357
  15.1536546  65.5832514  61.3910602  15.1261879  65.4556426  62.4732162
  15.4915019  66.5918881  61.1531285  14.1551009  65.4291657  60.9821013
  17.5156659  64.8183947  61.3206683  17.9220959  64.2694908  62.3448387
  18.2519431  65.6633829  60.6227494  17.9578086  66.0106526  59.7210909
  19.5369859  66.0922612  61.1385355  20.1502459  65.2196974  61.3635774
  20.2686402  66.9503300  60.1237562  20.3804934  66.3598647  59.2143944
  19.6439389  67.8194117  59.9174910  21.6103975  67.4026820  60.5903341
  21.5253927  68.0043929  61.4952204  22.2637167  66.5512256  60.7808542
  22.1793038  68.2260347  59.5034514  22.2975456  67.6013271  58.6180937
  21.4878800  69.0395321  59.2837824  23.4683744  68.7923887  59.8477319
  23.4823093  69.6408489  60.3954732  24.6253684  68.2506062  59.4903044
  24.6372979  67.1102445  58.7918840  23.7655250  66.6668688  58.5398324
  25.5180255  66.6975661  58.5196432  25.7619838  68.8529877  59.8216456
  25.7383312  69.7179607  60.3425701  26.6446154  68.4432569  59.5511260
  19.3289830  66.8748971  62.4212611  18.3734078  67.6411131  62.5566052
  20.2237027  66.6735030  63.3696608  21.0039960  66.0507336  63.2166897
  20.1027213  67.3184175  64.6609933  19.0575327  67.5603452  64.8537389
  20.6017564  66.4054042  65.7678535  21.5368757  65.9779943  65.4059530
  20.8047377  67.0517491  66.6217486  19.6793761  65.3048088  66.1844210
  18.7521341  65.7499261  66.5452447  19.4589241  64.6228183  65.3632073
  20.3073039  64.5171613  67.3109302  20.5944720  65.0700052  68.3832697
  20.5692661  63.2317460  67.0682774  20.9889281  62.6604989  67.7877647
  20.3467265  62.8357296  66.1661973  20.8974702  68.6120463  64.6904016
  21.9253746  68.7566927  64.0163163  20.4198655  69.5496772  65.4992427
  19.5248261  69.4493685  65.9563445  21.1636198  70.7789769  65.7049187
  21.3721231  71.2535061  64.7460404  20.3486772  71.7490257  66.5637521
  19.3084048  71.6743347  66.2469654  20.4334786  71.4417478  67.6061000
  20.8182948  73.1824796  66.4203148  20.7045933  73.7486225  65.3030220
  21.3111608  73.7401930  67.4218400  22.4962718  70.4416389  66.3601964
  22.5486593  69.6806339  67.3321367  23.5868039  70.9687496  65.8063102
  23.5715600  71.5338747  64.9693510  24.8761286  70.6450010  66.3962879
  24.9453047  69.5694982  66.5594062  26.0128790  71.0719254  65.4770258
  25.6891622  71.9109088  64.8610603  26.8933585  71.3614305  66.0506482
  26.4494025  69.9962323  64.5382725  25.5533127  69.0356680  64.1094145
  24.5233971  69.0664289  64.4649810  25.9514881  68.0470184  63.2416321
  25.2324756  67.3014870  62.9020666  27.2572585  67.9968249  62.8005036
  27.5724558  67.2137987  62.1108511  28.1600682  68.9352387  63.2316408
  29.1950313  68.8970403  62.8917991  27.7541452  69.9309555  64.0992505
  28.4691938  70.6774800  64.4449478  25.0450776  71.2702827  67.7687124
  25.9299111  70.8510447  68.5262842  24.2193365  72.2632145  68.1029939
  23.6266575  72.7025032  67.4131704  24.2152385  72.7978461  69.4582633
  25.2286961  73.0636077  69.7588854  23.3371590  74.0590128  69.5215158
  23.5215134  74.5594806  70.4721180  23.6231750  74.7190129  68.7025562
  21.9561437  73.7417632  69.4135744  21.4381100  74.5488518  69.4565735
  23.7572238  71.7611021  70.4859498  24.0425444  71.9213304  71.6775182
  23.0549664  70.7083269  70.0605784  22.6932508  70.6904706  69.1177410
  22.7626127  69.5767928  70.9356337  22.6909988  69.9224278  71.9668985
  21.4365027  68.9104986  70.5488675  21.6612244  68.2064608  69.7476620
  21.0926397  68.3634583  71.4267088  20.3612287  69.8572729  70.0962152
  20.8055761  70.5958282  69.4289878  19.6026296  69.2905208  69.5563805
  19.7297014  70.5527455  71.2588588  19.3953270  69.8094127  71.9825639
  20.4640561  71.2090694  71.7258294  18.5377331  71.3770150  70.7906824
  18.3738341  71.1694099  69.7332621  17.6627519  71.0658763  71.3613836
  18.7618103  72.8456299  70.9819384  19.5722912  73.1342254  70.4528514
  17.9509461  73.3546078  70.6601610  18.9132788  73.0382727  71.9617573
  23.8749443  68.5382347  70.8744734  24.2844491  68.0005288  71.9062695
  24.3719628  68.2593625  69.6674386  24.0265246  68.7468617  68.8531191
  25.3492428  67.1952880  69.4730416  25.0706326  66.2636501  69.9655112
  25.5101396  66.9262155  67.9671153  25.9461953  67.8058833  67.4936819
  26.4126278  65.7286131  67.7366839  25.9769692  64.8483979  68.2094669
  26.5161366  65.5516557  66.6661362  27.3940842  65.9241573  68.1686646
  24.1464836  66.7223611  67.3318503  23.5410186  67.6173887  67.4748186
  24.2666954  66.5321915  66.2653212  23.6512422  65.8709288  67.7986477
  26.6852752  67.5355867  70.1389967  27.3177886  66.6745199  70.7595874
  27.1396507  68.7809630  70.0181097  26.6345366  69.4465958  69.4507544
  28.3963323  69.2087319  70.6374449  28.7081697  68.5162985  71.4193609
  29.5198233  69.3118168  69.5970294  30.2893981  69.9881861  69.9690218
  30.1267715  67.9478530  69.3433391  29.3578459  67.2710113  68.9708613
  30.9223363  68.0355341  68.6034141  30.5376340  67.5538351  70.2728785
  28.9735212  69.9081401  68.3053497  28.5741884  70.9026906  68.5041080
  29.7749155  69.9792463  67.5699514  28.1801640  69.2696039  67.9168181
  28.1790661  70.5444291  71.3436017  28.6343732  71.5882231  70.8531005
  27.4958198  70.5582721  72.4856463  26.9251148  69.3933248  73.1893100
  27.7178759  68.8599217  73.7138205  26.4548033  68.7257743  72.4673111
  25.9335335  70.0131033  74.1237378  25.8293878  69.3982636  75.0177315
  24.9652332  70.1049541  73.6317426  26.4973205  71.3614790  74.4500523
  27.2777787  71.2537512  75.2032978  25.7615999  72.0896590  74.7914739
  27.1129049  71.8223673  73.1242851  26.3936119  72.3262733  72.4786888
  28.3073987  72.7286460  73.3532077  28.2596158  73.9186877  73.0031809
  29.4006334  72.2112844  73.9252216  29.6499795  70.8188382  74.3327866
  29.9931028  70.2405776  73.4748931  28.7314998  70.3798079  74.7223330
  30.7007957  70.9650921  75.3828267  31.3035149  70.0579679  75.4270342
  30.2301089  71.1355009  76.3510809  31.5138371  72.1358218  74.9764653
  32.2965940  71.8504449  74.2736491  31.9632811  72.6221446  75.8422539
  30.5203347  73.0934399  74.2928999  30.1251747  73.8293562  74.9931671
  31.1803835  73.8129134  73.1176308  31.9969662  74.7114298  73.3582133
  30.8607865  73.4789295  71.8657540  30.1396851  72.7907747  71.7027965
  31.5486174  74.0491833  70.7089147  32.5907296  74.2549845  70.9533471
  31.5062505  73.0577337  69.5477697  31.0676266  72.1744202  70.0119523
  30.8018511  73.4779956  68.8299248  32.7916851  72.6678678  68.8287867
  32.9836223  73.3982547  68.0427867  33.9622938  72.6303493  69.7754322
  33.7712781  71.8998011  70.5615055  34.8627888  72.3488688  69.2295585
  34.1013035  73.6151841  70.2213885  32.5743112  71.3281357  68.1855237
  31.7507158  71.3951596  67.4746806  33.4810928  71.0241793  67.6625909
  32.3331488  70.5914251  68.9518116  30.9239118  75.3727257  70.2790212
  29.6984340  75.5131675  70.2671404  31.7700839  76.3409396  69.9136930
  32.7628278  76.2540171  70.0780199  31.2656088  77.5999558  69.3766454
  30.3197074  77.8480669  69.8581124  32.2584385  78.7444074  69.6265512
  31.7975044  79.6566283  69.2477476  32.3996232  78.8296408  70.7040029
  33.6214770  78.5387586  68.9461905  33.8258614  77.5064302  68.2735368
  34.5022096  79.4244245  69.0951943  30.9204321  77.4266089  67.8957829
  30.9405597  76.3185971  67.3485024  30.5553363  78.5185475  67.2277791
  30.5241652  79.4462023  67.6260056  30.0551051  78.3317041  65.8737115
  29.3598695  77.4924812  65.8524595  29.3229325  79.5868090  65.3855671
  29.8578483  80.4584835  65.7625923  29.3467335  79.5898591  64.2958312
  27.8484275  79.6347915  65.8709647  27.8460840  80.1176336  66.8481847
  27.2966817  80.2505789  65.1606960  27.1647443  78.2241185  65.9824183
  27.0177786  77.5036158  64.9557606  26.7722632  77.8352247  67.1131606
  31.1685161  77.9134247  64.9228932  30.9218267  77.1493833  63.9825465
  32.4022394  78.3530462  65.1696517  32.6044139  79.0129716  65.9070277
  33.4944329  77.9354700  64.2961208  33.2181785  78.0839539  63.2522169
  34.7396719  78.7651987  64.5936511  34.7609620  78.9520109  65.6673118
  35.6173614  78.1849752  64.3088675  34.7452617  80.1006038  63.8431473
  33.9871884  80.2463217  62.8475786  35.5158744  81.0000041  64.2423330
  33.7785496  76.4419448  64.4331474  33.9897169  75.7465835  63.4298698
  33.7670976  75.9313349  65.6667532  33.6102263  76.5226728  66.4703763
  33.9802842  74.5087024  65.8880007  34.9251876  74.2348714  65.4186679
  34.0480244  74.3436455  66.9632991  32.8764310  73.6341382  65.3227338
  33.1530106  72.5695144  64.7683207  31.6113433  74.0542051  65.4675018
  31.3913712  74.8751204  66.0132213  30.5074108  73.3101713  64.8565422
  30.5117209  72.2818731  65.2180438  29.1690920  73.9464964  65.2138181
  29.1965041  74.9660485  64.8292907  28.4034432  73.3794901  64.6843033
  28.8492047  73.9732827  66.6704349  28.9324950  72.9681852  67.0838869
  29.5426280  74.6367780  67.1871942  27.4355976  74.4787172  66.8555559
  27.3758296  75.5315419  66.5797173  26.7482453  73.9019352  66.2367112
  27.0379128  74.3382042  68.2507523  26.8240666  73.4085747  68.5826532
  26.9491304  75.3532825  69.1055175  27.2191611  76.5886472  68.6862855
  27.4884868  76.7450208  67.7254988  27.1533185  77.3631796  69.3311606
  26.5835040  75.1329791  70.3717962  26.3748000  74.1933348  70.6777556
  26.5175296  75.9071200  71.0171271  30.6416387  73.2619037  63.3454260
  30.3304882  72.2436926  62.7184169  31.0775824  74.3675351  62.7451742
  31.2092979  75.2207603  63.2693470  31.3154970  74.3958951  61.3106564
  30.4043416  74.1406283  60.7696074  31.7507064  75.8007603  60.8982492
  30.9270717  76.4947124  61.0660456  32.6074032  76.1018949  61.5011493
  32.1073030  75.8163623  59.5351933  32.3791007  76.7026275  59.2856740
  32.3604264  73.3574483  60.9078852  32.1268170  72.5333258  60.0141667
  33.5234246  73.3828405  61.5626107  33.6979220  74.0570745  62.2940876
  34.5968862  72.4678201  61.1959204  34.8667286  72.6128225  60.1498522
  35.8275732  72.7246933  62.0562347  36.1302283  73.7208428  61.7334573
  35.5450537  72.7545141  63.1085624  36.9977936  71.7486199  61.8683048
  36.6795494  70.7745525  62.2398075  37.4418601  71.6175054  60.4036157
  37.7607068  72.5911519  60.0315295  38.2717007  70.9139625  60.3365888
  36.6087183  71.2542346  59.8019435  38.1770611  72.1309132  62.7561116
  37.8681047  72.1082559  63.8011628  38.9919711  71.4233388  62.6032670
  38.5153019  73.1348152  62.4994542  34.1447828  71.0292807  61.3356984
  34.2928564  70.2264348  60.4088226  33.5951727  70.6803911  62.4958375
  33.5467887  71.3220172  63.2743452  33.0809342  69.3311890  62.6805496
  33.8956285  68.6095931  62.6199544  32.4215164  69.2068485  64.0472462
  33.2006812  69.4151628  64.7804628  31.6175712  69.9349169  64.1553603
  31.8729783  67.8104955  64.2754248  31.2097026  67.5435652  63.4526768
  33.0214241  66.8124728  64.3455376  33.6849235  67.0784986  65.1683971
  32.6236467  65.8109712  64.5094538  33.5787421  66.8327116  63.4090082
  31.0533838  67.7915964  65.5214460  30.2255185  68.4937824  65.4230933
  30.6604783  66.7878420  65.6833212  31.6743484  68.0793344  66.3698025
  32.0829128  68.9772289  61.5903247  32.1014504  67.8643461  61.0482157
  31.1912899  69.9094950  61.2686486  31.1785514  70.8042088  61.7370761
  30.1719883  69.6417012  60.2642579  29.5378205  68.8135388  60.5806084
  29.3003018  70.8807691  60.0802923  29.0882046  71.3183079  61.0558300
  29.8330299  71.6061596  59.4653862  28.0866783  70.5291835  59.4483031
  27.5450119  71.3138688  59.3366508  30.8042817  69.2316717  58.9474304
  30.3526099  68.2873139  58.2893498  31.8714340  69.9280905  58.5595596
  32.2124993  70.6817768  59.1389825  32.5306465  69.6855218  57.2828603
  31.7898661  69.5101928  56.5027299  33.3664030  70.9078473  56.8976624
  34.1852506  70.9881709  57.6126001  33.7709618  70.7320241  55.9009084
  32.5607753  72.2065823  56.8983020  31.6955902  72.0744315  56.2486161
  32.2236189  72.4009196  57.9164673  33.3576408  73.4128987  56.4098800
  33.9378561  73.3770605  55.3244995  33.3889337  74.4853704  57.2086636
  33.9041146  75.3068533  56.9260756  32.8972369  74.4687832  58.0907410
  33.3963362  68.4315171  57.3099472  33.6208255  67.8174750  56.2574179
  33.9045545  68.0468867  58.4866934  33.8403217  68.6341971  59.3058637
  34.6243637  66.7873576  58.5957948  35.2719793  66.6605691  57.7282592
  35.4859474  66.7580548  59.8564053  34.8096037  66.8095520  60.7096383
  36.0098567  65.8022677  59.8658933  36.4866891  67.8792750  59.9414484
  37.2031501  67.7803181  59.1259780  35.9638284  68.8314433  59.8514806
  37.3678651  67.8333531  61.5132276  38.4263941  66.4240257  61.2755979
  39.0775007  66.5983301  60.4189901  39.0336860  66.2705778  62.1676467
  37.8176538  65.5382082  61.0943141  33.6782885  65.5994007  58.5907753
  34.1211277  64.4800404  58.3203687  32.3881239  65.8198271  58.8708348
  32.0909723  66.7467820  59.1401952  31.4007621  64.7471628  58.8812763
  31.9013811  63.7885757  58.7449292  30.6399715  64.7170298  60.2084695
  30.2165681  65.7187900  60.2813060  29.8345000  63.9886018  60.1151513
  31.4566427  64.4157446  61.4678679  32.2325075  65.1729408  61.5809545
  30.5615868  64.4279659  62.6824870  29.7856930  63.6706622  62.5703323
  31.1529461  64.2125025  63.5724142  30.0986003  65.4095751  62.7834192
  32.1644003  63.0886111  61.3314934  32.8352583  63.1205479  60.4729895
  32.7405882  62.8890023  62.2349673  31.4289001  62.2970713  61.1879555
  30.4298235  64.8578540  57.7157207  29.3426301  64.2892490  57.7595363
  30.8046226  65.5756166  56.6729305  31.6555492  66.1184556  56.7096605
  30.0015517  65.6334810  55.4616606  29.0293560  66.0840327  55.6615052
  30.7386404  66.4964142  54.4368911  31.3398877  67.2388973  54.9616004
  31.3846113  65.8880327  53.8038876  29.8374722  67.2456636  53.5278244
  29.2229464  66.6540022  52.4431881  28.4738038  67.5501504  51.8255832
  27.9058237  67.2815469  50.9348814  28.5764617  68.6969456  52.4759585
  28.1108959  69.5595929  52.2326726  29.4244465  68.5326396  53.5470217
  29.6357647  69.3726415  54.2087184  29.7631067  64.2259423  54.9112539
  30.6881661  63.4134377  54.8354678  28.5170686  63.9250272  54.5237372
  27.7585086  64.5839975  54.6259335  28.2152797  62.5976667  53.9872218
  28.5219768  61.8357520  54.7038263  26.7175420  62.4431829  53.7207679
  26.3627090  63.4360596  53.4443829  26.5919292  61.7650288  52.8767132
  25.9200144  61.9334684  54.8991626  26.1291656  60.6555306  55.4205969
  26.8908971  60.0168797  54.9733948  25.3746886  60.1912644  56.5044024
  25.5459248  59.1923939  56.9056974  24.3889366  61.0112101  57.0653009
  23.6277313  60.5907988  58.1436774  23.8543936  59.7065236  58.4407988
  24.1669073  62.2755844  56.5491753  23.3997761  62.9187627  56.9803736
  24.9285588  62.7251512  55.4742271  24.7558702  63.7192509  55.0618627
  28.9926173  62.3234540  52.7058200  29.5489664  61.2361004  52.5267593
  29.0257273  63.2822193  51.7931000  28.5876023  64.1711095  51.9880878
  29.6212832  63.0779418  50.4746919  29.3644873  62.0895461  50.0936025
  29.0850202  64.1343249  49.4989698  28.0018903  64.0172642  49.4639621
  29.3308731  65.1187346  49.8972083  29.6586695  63.9979580  48.0859983
  30.4891434  63.0843251  47.8371469  29.2819601  64.8248669  47.2150627
  31.1455498  63.1227355  50.5516192  31.7196586  64.1838605  50.8313671
  31.8367098  62.0059395  50.3058340  31.3157325  60.6776508  49.9638401
  30.9400864  60.6826536  48.9406269  30.5075155  60.4133195  50.6457589
  32.5198551  59.7938675  50.1323778  32.4584693  58.9760592  49.4143803
  32.5196633  59.3889620  51.1443822  33.7140150  60.6267861  49.8989799
  33.9718485  60.6389054  48.8399832  34.5703589  60.2793067  50.4769356
  33.3125480  62.0352838  50.3538994  33.6015753  62.2136543  51.3896337
  33.9299663  63.1038528  49.4647577  35.0090832  63.6210745  49.7939241
  33.2847437  63.4661780  48.3505678  32.4345759  63.0117863  48.0491674
  33.8550559  64.5036379  47.4967282  34.9238492  64.3295610  47.3723203
  33.1955503  64.4950742  46.1191023  32.1117127  64.5477796  46.2221428
  33.5508299  65.3680728  45.5716080  33.5410363  63.2718607  45.3409725
  34.6561799  62.7560623  45.4458947  32.5845401  62.7715748  44.5700490
  32.7643662  61.9432614  44.0208138  31.6808192  63.2212623  44.5358360
  33.7367431  65.8814485  48.1159616  34.5186255  66.7696780  47.7727092
  32.7867301  66.0833263  49.0187648  32.1259612  65.3568161  49.2547030
  32.6350507  67.3816416  49.6478051  33.1330190  68.1446099  49.0494690
  31.1495152  67.7440562  49.7664007  30.7193147  67.0465125  50.4850518
  31.1111097  68.7543525  50.1737415  30.3431450  67.6890381  48.4497237
  30.5467856  66.7213254  47.9912878  29.2885746  67.7482445  48.7189407
  30.6802305  68.8075166  47.4541087  29.9393115  68.7858067  46.6549424
  30.6189654  69.7603634  47.9798739  32.0859117  68.6433551  46.8537819
  32.8054773  68.9062373  47.6291650  32.2071636  67.5934386  46.5871875
  32.3231532  69.5012235  45.6367181  32.2112695  70.4741643  45.8836352
  33.2603325  69.3466229  45.2933617  31.6567643  69.2574941  44.9179547
  33.2837788  67.4538741  51.0165363  33.5363590  68.5556449  51.5064275
  33.5859746  66.3189989  51.6317192  33.3528349  65.4244486  51.2248716
  34.2032146  66.3378043  52.9505001  33.5682357  66.8658418  53.6618912
  34.3884323  64.9047772  53.4335484  33.4948417  64.3579353  53.1326180
  35.2531361  64.5074610  52.9020155  34.5964081  64.7486710  54.9180934
  35.5360975  65.2175852  55.2099907  33.7736780  65.2185631  55.4569985
  34.6426082  63.2809009  55.2535474  35.4495251  62.8043227  54.6968990
  34.8160018  63.1558797  56.3223803  33.3852073  62.6285940  54.9045623
  32.5486370  63.1927883  54.9485425  33.2719755  61.3500988  54.5445615
  34.3471479  60.5679006  54.4756031  35.2573612  60.9450926  54.6977248
  34.2476347  59.6009179  54.2014839  32.0826673  60.8541366  54.2440812
  31.2658803  61.4465518  54.2888404  31.9971107  59.8854291  53.9713459
  35.5365232  67.0941123  52.9342691  36.3620279  66.9199355  52.0337791
  35.7394032  67.9451633  53.9460028  35.0630522  68.0101405  54.6932822
  36.8948057  68.8342458  53.9800250  36.9312510  69.4510839  53.0820930
  36.7991587  69.7367944  55.2162950  35.8008337  70.1713970  55.2669714
  37.0592903  68.9363262  56.4580020  38.0576777  68.5017585  56.4082619
  36.9892501  69.5855489  57.3307591  36.3202317  68.1392016  56.5385252
  37.8029150  70.8848196  55.1339511  38.8020797  70.4492043  55.1371129
  37.6353008  71.4013421  54.1888535  37.6776897  71.8802699  56.2875569
  37.8456481  71.3645359  57.2330241  38.4191440  72.6703166  56.1685150
  36.6788678  72.3166722  56.2847659  38.1979185  68.0503746  53.9875020
  38.3077690  66.9978294  54.6203208  39.2034018  68.5742304  53.2999816
  39.0509574  69.3935920  52.7294497  40.5325629  67.9828499  53.3165588
  40.4498548  66.8973282  53.2626966  41.3604670  68.4679609  52.1310971
  42.2138174  67.8011392  52.0076429  40.7393998  68.4319317  51.2360678
  41.8188972  69.7843519  52.3312731  42.3354849  70.0623127  51.5713555
  41.2429249  68.3377539  54.6112151  40.8670666  69.2702972  55.3202775
  42.2854493  67.5782360  54.9256231  42.5292273  66.7497725  54.4018675
  43.0716596  67.9036558  56.1102488  42.4086376  67.9536382  56.9739633
  44.1213248  66.8218848  56.3623194  44.7983106  66.7661175  55.5098639
  44.6882240  67.0672032  57.2603975  43.6271595  65.8596831  56.4967360
  43.7238999  69.2729451  55.9648435  43.6924454  70.0912517  56.8903152
  44.3142831  69.5395086  54.7948061  44.3895504  68.8190323  54.0909965
  44.9080222  70.8456413  54.5156552  45.7180500  71.0495735  55.2159165
  45.4772573  70.8572365  53.0904475  46.1118919  69.9741840  53.0159063
  44.6201904  70.7451746  52.4263854  46.2769525  72.0944351  52.6849671
  46.0575678  72.3220537  51.6418176  45.9645991  72.9295299  53.3119871
  47.7638053  71.8691523  52.8496719  47.9836338  71.7533497  53.9109749
  48.0391420  70.9568803  52.3204754  48.5569411  73.0332400  52.2944157
  48.3132874  73.9295873  52.8647621  49.6201472  72.8159374  52.3967466
  48.2368751  73.2522576  50.8795263  47.2518098  73.4540556  50.7845325
  48.7755045  74.0315403  50.5292453  48.4629755  72.4219493  50.3507865
  43.8773417  71.9516390  54.6927079  44.0995870  72.9197312  55.4273272
  42.7359874  71.8201279  54.0226092  42.5835405  71.0516527  53.3851886
  41.6894187  72.8220857  54.1580774  42.0632271  73.7878213  53.8178991
  40.4864162  72.4388706  53.3071596  40.0952834  71.4780723  53.6417965
  39.7127774  73.2001941  53.4070083  40.7887226  72.3636071  52.2626283
  41.2801369  72.9786603  55.6079404  41.0465957  74.0997258  56.0781155
  41.1964703  71.8641066  56.3394258  41.3792899  70.9537489  55.9420277
  40.7702491  71.9378332  57.7356299  39.7977029  72.4279000  57.7813193
  40.6399448  70.5343469  58.3360929  41.6079968  70.0342927  58.3057421
  40.3033049  70.6107490  59.3699868  39.9156975  69.9580747  57.7603538
  41.7399566  72.7758853  58.5512800  41.3265482  73.5340191  59.4358684
  43.0412764  72.6469278  58.2712771  43.3713550  71.9489163  57.6201800
  44.0280462  73.4819449  58.9500891  43.9846865  73.3132410  60.0260808
  45.4290392  73.1340397  58.4583407  45.3669713  73.1691580  57.3706764
  46.1336014  73.8895138  58.8061207  45.9074302  71.7538524  58.8954723
  45.1236074  71.0240953  58.6925505  47.1618786  71.3696026  58.1403463
  47.9463510  72.0986928  58.3431500  47.4923103  70.3820768  58.4623841
  46.9515324  71.3509642  57.0709972  46.1565573  71.7165521  60.3962889
  45.2322398  71.9505500  60.9244759  46.4969985  70.7218532  60.6839956
  46.9191248  72.4504990  60.6568876  43.7506330  74.9650228  58.7391509
  44.0542791  75.7807670  59.6165393  43.1867947  75.3348969  57.5834206
  42.9971137  74.6373062  56.8780926  42.8629297  76.7165955  57.2880403
  43.6610745  77.3378661  57.6943492  42.7967084  76.9325555  55.7847286
  41.9960140  76.3238688  55.3646226  42.6003094  77.9843082  55.5765368
  43.7462516  76.6445558  55.3335932  41.5476621  77.1711559  57.8874633
  41.2173758  78.3510231  57.7677869  40.7819387  76.2886405  58.5154563
  41.0721723  75.3303758  58.6480934  39.4699203  76.6860343  59.0038279
  38.8793171  77.0885737  58.1808765  38.7267395  75.4909576  59.5993975
  38.8224461  74.6175079  58.9543974  39.1385176  75.2628616  60.5825104
  37.2552402  75.7230130  59.7930827  36.7340397  76.2982419  60.9351719
  35.4181068  76.3618738  60.8304788  34.8195769  76.7857770  61.6368082
  35.0638910  75.8519113  59.6626679  34.1210000  75.7713298  59.3097330
  36.1927660  75.4432144  58.9949928  36.1077898  74.9904287  58.0071339
  39.6033411  77.7799372  60.0585892  40.6022969  77.8269871  60.7826691
  38.5954084  78.6569751  60.1814757  37.3729513  78.7359287  59.3652368
  36.6759626  77.9564448  59.6729895  37.6255064  78.6021542  58.3133721
  36.8659409  80.1031288  59.6571499  35.7770862  80.0835239  59.6112116
  37.2490306  80.7825212  58.8957240  37.3387832  80.4906384  60.9901245
  36.6194318  80.1852935  61.7499910  37.5088131  81.5648723  61.0623122
  38.6609590  79.7364765  61.1902021  39.5279549  80.3512604  60.9484235
  38.7761943  79.2416424  62.6147175  39.1781290  80.0168117  63.4906822
  38.3989580  77.9862601  62.8724929  37.9988101  77.4254179  62.1339558
  38.4976351  77.4042902  64.2071351  37.8528201  77.9363606  64.9065734
  38.0482871  75.9410077  64.1430745  37.0592814  75.8450951  63.6950035
  38.7741970  75.3953889  63.5402022  37.9863838  75.2469947  65.4734429
  37.0863227  75.6456955  66.4398976  36.4294109  76.4909649  66.2347477
  37.0102402  74.9911259  67.6522313  36.2973713  75.3252729  68.4060644
  37.8268594  73.9253758  67.9086505  37.7700456  73.4071646  68.8659014
  38.7232361  73.5074611  66.9523571  39.3754094  72.6577768  67.1543641
  38.7978851  74.1622505  65.7380493  39.5023276  73.8232699  64.9784752
  39.9093429  77.5067957  64.7582310  40.0887962  77.6179849  65.9766376
  40.9150004  77.4661655  63.8755249  40.6727058  77.3882008  62.8981232
  42.3260420  77.4852228  64.2379811  42.4405868  77.2313648  65.2918002
  43.1067458  76.4671541  63.4017038  42.9638610  76.6819150  62.3426661
  44.1691142  76.5133512  63.6411597  42.6806432  75.0437121  63.6124257
  42.8337793  74.4314699  64.8494421  43.2704178  74.9936924  65.6748829
  42.4412465  73.1315761  65.0373838  42.5587502  72.6645362  66.0152220
  41.8981815  72.4145898  63.9912576  41.5871046  71.3811997  64.1443454
  41.7489747  73.0023110  62.7557499  41.3251479  72.4358503  61.9265374
  42.1374913  74.3116916  62.5687413  42.0186773  74.7812755  61.5922813
  42.9723315  78.8528279  64.0647953  44.1998728  78.9450828  64.1203334
  42.1960299  79.9162625  63.8446959  41.1905157  79.8492708  63.7772221
  42.8224149  81.2117068  63.5918130  43.4560292  81.1476728  62.7072047
  41.7589503  82.2886353  63.3553028  42.2894169  83.2239834  63.1768977
  41.2137960  82.0033930  62.4555564  40.7833153  82.4721481  64.4995853
  40.2262210  81.5478588  64.6526736  41.3495469  82.7079631  65.4006264
  39.8034131  83.5879217  64.2406609  40.1002111  84.5183008  63.4868899
  38.6190493  83.5001885  64.8533430  37.9267258  84.2220962  64.7132040
  38.4216471  82.7123729  65.4537431  43.7698044  81.5933474  64.7335374
  44.9561375  81.8637923  64.5029790  43.2832898  81.5692821  65.9792575
  42.3040734  81.3871888  66.1468183  44.1306421  81.9086230  67.1215411
  44.5848104  82.8884929  66.9742821  43.2825159  81.9474056  68.4063535
  43.9663886  82.0889617  69.2432401  42.6151531  82.8061702  68.3338946
  42.4499020  80.6665015  68.6333089  42.3864437  79.7970002  67.7340794
  41.8504323  80.5344599  69.7286719  45.3430090  80.9724583  67.2954840
  46.1643324  81.2209652  68.1871909  45.4928574  79.9293262  66.4732906
  44.7716281  79.7268018  65.7958605  46.6211866  79.0036139  66.5832849
  47.2950657  79.2937569  67.3893886  46.1478838  77.5476290  66.8327636
  45.4015413  77.2963004  66.0791683  47.3123046  76.5466457  66.7541719
  48.0588866  76.7970695  67.5078324  46.9385108  75.5387674  66.9346162
  47.7661817  76.5934680  65.7642705  45.4614341  77.4283907  68.1791317
  44.5946847  78.0888133  68.2053888  45.1379280  76.3988954  68.3326987
  46.1574193  77.7116107  68.9687467  47.5482226  79.0543132  65.3681520
  48.6429847  78.4646819  65.4158265  47.1627234  79.7450083  64.2913778
  46.2887267  80.2505527  64.3169527  47.9363809  79.7675435  63.0603756
  48.9960078  79.6402309  63.2819191  47.4943107  78.6420468  62.1097126
  47.4399584  77.7104681  62.6730129  46.1249330  78.9465919  61.4936631
  46.1786230  79.8778564  60.9297807  45.8375048  78.1342894  60.8260938
  45.3830796  79.0446004  62.2862212  48.4543344  78.4879854  61.0585639
  48.1730773  77.7845698  60.4689019  47.7719565  81.1205974  62.3846361
  46.6544833  81.6359799  62.2803460  48.8902534  81.7087168  61.9526353
  49.8148776  81.3936170  62.2093094  48.7727266  82.8891625  61.1020471
  47.8004608  83.3540334  61.2654285  49.8684986  83.9212191  61.4105809
  49.7297637  84.2381777  62.4442100  50.8269735  83.4114200  61.3129554
  49.8472562  85.1506411  60.4914752  50.0098159  84.8080626  59.4695578
  48.8614151  85.6093155  60.5678775  50.9120167  86.1736195  60.8584973
  51.8770790  85.6681511  60.8939296  50.9327232  86.9413099  60.0849845
  50.6262299  86.8251659  62.2175588  50.3833551  86.0217371  62.9129829
  51.5456088  87.3159154  62.5369435  49.5076161  87.8240127  62.1978085
  48.6555119  87.3693785  61.9022989  49.3814142  88.2064776  63.1240339
  49.7326609  88.5687925  61.5537923  48.8507644  82.4872858  59.6273203
  49.5946847  81.5536425  59.2693906  48.0837299  83.1687616  58.7693309
  47.0741546  84.1978844  59.0922012  47.5161956  84.9448525  59.7515485
  46.2261035  83.7294374  59.5916666  46.7071955  84.7610447  57.7435978
  47.3436664  85.6160407  57.5155939  45.6637729  85.0762533  57.7473862
  46.9258069  83.6352267  56.7644978  47.1882573  84.0472772  55.7901092
  46.0601053  82.9811161  56.6605760  48.1145585  82.8451666  57.3350674
  47.9706939  81.7701406  57.2268065  49.4348441  83.2505072  56.6793067
  50.0130076  84.3070553  56.9662388  49.9091773  82.3779300  55.8015648
  49.3982254  81.5177769  55.6631300  51.1459646  82.5731592  55.0589350
  51.8068200  83.2764442  55.5656494  51.8987316  81.2456358  54.8619718
  52.9079364  81.4490589  54.5038880  51.9713763  80.5042568  56.1856129
  50.9624796  80.3000582  56.5441256  52.5044909  79.5636779  56.0470458
  52.4993654  81.1162341  56.9169220  51.2280704  80.3733793  53.7939521
  51.2154455  80.9070645  52.8436244  51.7857512  79.4437310  53.6806131
  50.2055977  80.1484242  54.0973425  50.7907162  83.2104429  53.6994417
  49.9195559  82.6743264  53.0074419  51.4223814  84.3100035  53.3292273
  52.4528407  85.0402245  54.0826786  53.3784172  84.4645449  54.0815029
  52.1166255  85.1845184  55.1094394  52.5780984  86.3306287  53.3370229
  53.6096675  86.6788106  53.3893073  51.9210222  87.0736974  53.7889091
  52.1677563  86.0423053  51.9215812  53.0177703  85.6521376  51.3618095
  51.7632845  86.9136460  51.4065399  51.0870044  84.9613887  52.0490705
  50.0869509  85.3844688  52.1439096  51.1215837  84.0025603  50.8670897
  52.1380203  83.3653200  50.5869175  50.0049507  83.9190859  50.1504471
  49.1847533  84.4454314  50.4156565  49.9131150  83.0305810  48.9997050
  50.4393445  82.0995691  49.2104148  48.4460386  82.7044731  48.6842811
  47.9787450  82.2765079  49.5711755  47.9113621  83.6085341  48.3929139
  48.2488972  81.7090645  47.5702443  48.5520427  80.3675377  47.7002434
  48.2778477  79.7422294  46.5663442  48.4561346  78.6715902  46.4661217
  47.7993328  80.6260645  45.7072854  47.5047687  80.4349910  44.7602781
  47.7641875  81.8626047  46.3106809  47.3901644  82.7266201  45.7614220
  50.5959596  83.6870671  47.8084689  50.3350506  84.8506276  47.4876660
  51.4905007  82.9525557  47.1748892  51.7974289  82.0738826  47.5670986
  52.0893331  83.3968744  45.9283358  52.1534658  84.4847509  45.9057312
  53.5013880  82.8214339  45.8084816  54.0439082  83.3961985  46.5590925
  53.4447945  81.7787194  46.1209614  54.2296323  82.9122902  44.4772354
  53.5712099  82.5183832  43.7030144  54.6194459  84.3416184  44.1319235
  55.2782870  84.7360731  44.9055078  55.1368869  84.3560034  43.1726797
  53.7228699  84.9583789  44.0698090  55.4288361  82.0209116  44.5324941
  55.1109574  80.9941559  44.7136715  55.9648233  82.0729118  43.5848048
  56.0861749  82.3449390  45.3393466  51.2111947  82.9516149  44.7626755
  50.8713245  81.7690808  44.6635434  50.8394628  83.8938949  43.8847593
  51.1049677  84.8592810  44.0175606  49.9966934  83.5581960  42.7380335
  49.0772043  83.0909026  43.0905613  49.6346880  84.7966138  41.9326278
  50.5603775  85.3350673  41.7294873  49.1982800  84.4579222  40.9929810
  48.6735624  85.7041807  42.6292652  48.2647034  86.4122337  41.9084350
  47.8641917  85.1095923  43.0529228  49.3746317  86.4588317  43.7335377
  49.3729942  85.8523358  44.6392192  50.4030205  86.6599090  43.4333979
  48.7127406  87.7315406  44.0205117  48.8625145  88.4861374  43.3661029
  47.9281003  87.9504376  45.0741135  47.7111012  86.9772416  45.9561492
  48.1430576  86.0739785  45.8233735  47.1155038  87.1466138  46.7540694
  47.3667481  89.1450398  45.2515237  47.5379458  89.8840967  44.5847506
  46.7724110  89.3064618  46.0520267  50.6569578  82.5474712  41.8091851
  50.3626306  81.3508728  41.8765253  51.5162713  83.0121404  40.9142344
  51.7161153  84.0007559  40.8613079  52.1566644  82.1224284  39.9459136
  52.2202272  81.1173985  40.3630154  51.3523971  82.0600486  38.6273967
  51.1697836  83.1291274  38.5186671  52.0475962  81.7303604  37.8553190
  50.0210839  81.2937580  38.4814969  49.6940080  81.4002081  37.4471902
  50.1321550  79.8011213  38.8324241  50.4587604  79.6938618  39.8667950
  49.1597504  79.3246953  38.7077309  50.8568182  79.3250046  38.1719117
  48.8927710  81.9608125  39.2737754  48.7443481  82.9774714  38.9098047
  47.9721771  81.3914804  39.1454435  49.1576477  81.9888912  40.3307290
  53.5889202  82.5784187  39.6633075  54.3366023  82.9131111  40.5760388
  53.3888134  82.3604965  38.5184297  58.7260603  70.4126714  35.5906771
  58.6967945  69.4578033  35.9185053  59.5538047  70.8576837  35.9606820
  58.5505583  70.4199286  34.5960687  57.6066343  71.1288914  36.1839059
  58.0382986  71.9608119  36.7403891  57.0176920  71.5154782  35.3521625
  56.6907058  70.3297761  37.1136353  57.1524596  69.5182529  37.9316203
  55.3706389  70.5618791  36.9780164  55.0963284  71.1857245  36.2325836
  54.3270698  70.0265021  37.8545202  54.6153316  69.0449308  38.2307144
  54.1286715  70.9723492  39.0506729  55.0667218  71.0062720  39.6047579
  53.9047466  71.9631576  38.6553801  53.0821173  70.5613736  39.9173587
  53.0035511  71.1854820  40.6425594  53.0239172  69.8402780  37.0678634
  52.4532520  70.8305427  36.5798613  52.5194088  68.5762476  36.8968451
  53.2662533  67.3206687  37.0607141  53.0764387  66.9079295  38.0515304
  54.3332592  67.5111606  36.9453442  52.6947861  66.4234496  35.9178851
  52.0449720  65.6600514  36.3457448  53.5170256  65.9439197  35.3867781
  51.9298147  67.3490431  35.0035102  51.1130109  66.8419703  34.4898879
  52.5525540  67.8656288  34.2731442  51.3674923  68.3510437  36.0107184
  51.1081335  69.3197288  35.5835410  50.1446010  67.7515120  36.6840629
  49.4477993  66.9448983  36.0643084  49.8759840  68.0880807  37.9039007
  50.4595287  68.6431144  38.5134190  48.6296271  67.5591275  38.4359864
  48.3052376  66.7066469  37.8392056  48.8191376  67.0975928  39.8887925
  49.3916389  67.9256859  40.3066480  47.8332167  67.0675838  40.3526455
  49.5552802  65.7754131  40.1639575  50.3711176  65.6716842  39.4485900
  50.1219897  65.7523173  41.5948051  49.3066372  65.8555404  42.3107969
  50.6382106  64.8077861  41.7664957  50.8230232  66.5772474  41.7218592
  48.6341974  64.5764052  39.9116017  48.3030931  64.5841624  38.8731369
  49.1763653  63.6524290  40.1126569  47.7672349  64.6388171  40.5693097
  47.5252521  68.6072315  38.3571769  47.7857549  69.7892968  38.1066054
  46.2709834  68.1981628  38.5451418  45.8061566  66.7930678  38.5398316
  46.3490942  66.2316698  39.3001943  45.9966230  66.3548230  37.5601566
  44.3279312  66.9045769  38.8445319  44.1606584  66.7406501  39.9090726
  43.7791625  66.1570377  38.2716974  43.9226337  68.3167041  38.4272793
  43.1029529  68.6412124  39.0683072  43.6293331  68.4207225  37.3826480
  45.1719477  69.1649146  38.7076978  45.3082677  69.9713795  37.9871913
  45.1491206  69.7453048  40.1237073  45.8632766  69.2879458  41.0197167
  44.3057283  70.7600807  40.3313978  43.7896499  71.1805760  39.5718281
  44.1609749  71.3353034  41.6727596  45.1260096  71.5031864  42.1509043
  43.3825560  72.6570856  41.6622860  42.3130661  72.4485641  41.6338366
  43.7117192  73.4529630  42.9211521  44.7810421  73.6622787  42.9500725
  43.1582962  74.3919827  42.9130504  43.4313808  72.8741836  43.8012239
  43.6716764  73.4553486  40.3978749  43.3788948  72.8724035  39.5246303
  43.1061719  74.3869499  40.4184509  44.7371799  73.6788117  40.3443278
  43.4741162  70.3022257  42.5666329  42.2676225  70.0657672  42.4463232
  44.2407274  69.7111670  43.4841333  45.2006902  70.0043986  43.5963208
  43.7518824  68.6171930  44.3115294  43.0778962  67.9838894  43.7346687
  44.9242445  67.7674585  44.7966803  45.4690609  68.4577610  45.4406965
  44.5150538  66.9560195  45.3985355  45.8789231  67.1905958  43.7418556
  46.2186391  67.9896269  43.0828843  47.0787000  66.5597826  44.4341005
  46.7397951  65.7602987  45.0929386  47.7567991  66.1500739  43.6854876
  47.5999438  67.3165786  45.0203301  45.1889214  66.1699983  42.8213110
  44.3624360  66.6517291  42.2988583  45.9072793  65.7923696  42.0936713
  44.8073065  65.3415083  43.4180299  42.9608997  69.1578056  45.5028151
  43.4713939  69.9836606  46.2696248  41.7119286  68.6905526  45.6546203
  41.3139454  68.1149929  44.9263073  40.8686649  69.0465562  46.7959435
  41.0571686  70.0809344  47.0833935  39.3754742  68.8986477  46.4382697
  38.7952306  69.3011644  47.2685689  39.1893766  69.4930574  45.5437615
  38.9896054  67.5509314  46.2001520  38.0550106  67.5192695  45.9830579
  41.1911214  68.2308723  48.0469286  40.5686465  68.4623261  49.0910579
  42.1566476  67.2996295  47.9614655  42.5484065  67.1264095  47.0467967
  42.6216582  66.4815097  49.0813080  42.0029723  66.6700222  49.9586847
  42.5318566  64.9795211  48.7270297  42.9905069  64.3993118  49.5277145
  41.4848334  64.6938490  48.6258666  43.2259076  64.5618810  47.4318834
  42.6901369  64.5704456  46.1608377  41.6585797  64.9086336  46.0627640
  43.6266066  64.1262302  45.2479817  43.4829809  64.0443918  44.2516014
  44.7849176  63.8136892  45.9145872  46.0025092  63.3243347  45.4242640
  46.0952212  63.1450345  44.3531176  47.0108852  63.0995169  46.3315958
  47.9698685  62.7158551  45.9833794  46.8361272  63.3524353  47.6998961
  47.6432527  63.1761266  48.4109258  45.6208028  63.8385486  48.1932778
  45.5360650  64.0255677  49.2637656  44.5726945  64.0732922  47.2915874
  44.0449667  66.8051808  49.5407021  44.4757861  66.2755994  50.5741353
  44.7836710  67.6500996  48.8121385  44.4387047  67.9255288  47.9037132
  46.0956191  68.1418425  49.2343342  46.0183473  68.5141807  50.2558491
  47.1480238  67.0262978  49.1974812  47.2433310  66.6494957  48.1791312
  48.1082605  67.4208545  49.5297022  46.8413096  66.2147866  49.8573866
  46.5203920  69.3192190  48.3538363  45.6785531  70.1315429  47.9547947
  47.8148136  69.4406518  48.0565675  48.4808263  68.8259246  48.5022546
  48.3213077  70.4753409  47.1555519  47.4847205  71.0245589  46.7236022
  49.2237225  71.4667373  47.9079627  49.3193207  71.1498006  48.9464767
  50.2049143  71.4553835  47.4333747  48.6821193  72.9039708  47.8812308
  47.5692552  73.1614652  47.3933218  49.4663774  73.8422221  48.4242719
  49.1626358  74.8054013  48.4355312  50.3585361  73.5829985  48.8204497
  49.0710116  69.8231575  45.9949909  50.0023992  69.0395659  46.2161998
  48.6809006  70.1609286  44.7591778  48.0647377  70.9461035  44.6044426
  49.0648662  69.3430639  43.6081719  48.9269942  68.2855924  43.8336591
  48.1889494  69.7050754  42.4076739  48.1246680  68.7984047  41.8060798
  47.2068518  69.9377488  42.8193139  48.6646052  70.8722676  41.5260731
  49.7525732  70.8210771  41.4835753  48.2545684  70.7106537  40.5291514
  48.2395467  72.2482752  42.0340193  47.1606496  72.2670541  42.1880562
  48.7442743  72.4656205  42.9753537  48.5920980  73.2828786  41.0639341
  49.4309639  73.1364822  40.5208213  47.8949437  74.3946891  40.8652002
  46.7934647  74.6224831  41.5749065  46.4913275  73.9478484  42.2631514
  46.2641846  75.4690595  41.4223598  48.2928467  75.2698526  39.9462535
  49.1241352  75.0846049  39.4033514  47.7619154  76.1157143  39.7954932
  50.5515089  69.4782612  43.2706216  51.2810686  68.4823610  43.2094946
  51.0084724  70.7076646  43.0285522  50.3572341  71.4647694  42.8776203
  52.4304272  70.9883652  42.9137446  52.8472231  70.5037581  42.0308311
  52.6275773  72.5075191  42.7796320  53.1494404  72.8299064  43.6806450
  53.2720961  72.6579902  41.9135754  51.3051381  73.3552701  42.6053620
  51.5713598  74.1595906  41.9195812  50.5697725  72.7040879  42.1328176
  50.6954876  73.9671891  43.9185986  50.1914427  73.2192724  44.8006242
  50.7037987  75.2156979  44.0525718  53.1931924  70.4350146  44.1107719
  54.3242056  69.9641546  43.9589264  52.5917241  70.4964322  45.3086557
  51.6824940  70.9270955  45.3977021  53.2504857  70.0140395  46.5186918
  54.2693623  70.3969030  46.5770455  52.4710273  70.5062915  47.7443495
  52.3654367  71.5832267  47.6133519  51.4904047  70.0349428  47.6787008
  53.0886853  70.2154925  49.1251143  53.4015239  69.1713866  49.1338118
  53.9616325  70.8568219  49.2466006  52.1006656  70.4661894  50.2853631
  52.3753673  69.9903194  51.4178787  51.0532535  71.1327645  50.0578730
  53.3685865  68.4931764  46.5052513  54.4300804  67.9468085  46.8336668
  52.2906011  67.7941855  46.1160210  51.4147151  68.2581355  45.9219245
  52.3350076  66.3374635  46.0345652  52.6950381  65.8985948  46.9650874
  50.9405979  65.7636531  45.7274477  50.5781613  66.1877245  44.7910170
  51.0105547  64.2602190  45.6050145  51.3724959  63.8353672  46.5412839
  50.0177477  63.8662744  45.3876615  51.6919928  63.9922326  44.7975944
  49.9605677  66.1486829  46.7919893  49.8891103  67.2350438  46.8450527
  48.9820019  65.7319265  46.5536140  50.2961460  65.7597690  47.7533602
  53.3466566  65.9059281  44.9895038  54.1363893  64.9774033  45.2118301
  53.3567036  66.5849317  43.8425329  52.7157178  67.3470911  43.6741591
  54.2500970  66.1848813  42.7667909  54.1113577  65.1277962  42.5400276
  53.9508489  66.9977945  41.5077628  52.8914242  67.1961500  41.3453632
  54.4916706  67.9422206  41.5683543  54.4405393  66.3081896  40.3008487
  55.6827408  66.4163889  39.7376026  56.3784933  67.1122378  40.2064551
  55.7820496  65.5815103  38.6510869  56.5883512  65.4928795  38.0493212
  54.5975725  64.9063139  38.5003924  54.2120941  63.9716396  37.5389974
  54.9288176  63.6851529  36.7693666  52.9398271  63.4685215  37.6272338
  52.6027112  62.7309184  36.8989518  52.0495506  63.8844194  38.6442209
  51.0377220  63.4833234  38.7027392  52.4362278  64.8120668  39.5943382
  51.7100510  65.1099618  40.3506625  53.7285984  65.3413296  39.5293677
  55.7101160  66.3300233  43.1791455  56.5240945  65.4232411  42.9546861
  56.0599258  67.4686886  43.7874394  55.3962809  68.2216021  43.9005588
  57.4318977  67.6852386  44.2276078  58.1209734  67.5194457  43.3994855
  57.6006808  69.1247568  44.7242602  56.5959527  69.5405350  44.8000845
  58.0401307  69.0540848  45.7192422  58.4649163  70.0359167  43.8485943
  59.4701378  70.0716665  44.2685377  58.5063334  69.6162756  42.8434634
  57.8823524  71.4651471  43.7858739  57.1182256  71.4688019  43.0085735
  57.4187561  71.6677800  44.7513364  58.9336916  72.5572826  43.4798825
  59.6105776  72.1278405  42.7412991  58.3870460  73.3870776  43.0318666
  59.7370106  73.0630567  44.6706436  60.2439583  72.2943834  45.0856679
  60.3898156  73.7688002  44.3610119  59.1100169  73.4614136  45.3549606
  57.8282624  66.6785482  45.2962660  58.9843732  66.2576935  45.3409773
  56.8859070  66.2750019  46.1468768  55.9889443  66.7384301  46.1750107
  57.1445491  65.2101092  47.1094737  57.9870698  65.4604949  47.7541171
  55.8914594  64.9681320  47.9732226  55.0177572  64.9323626  47.3224804
  56.0056642  63.6679527  48.7343745  56.8789375  63.7031482  49.3857237
  55.1095166  63.5190527  49.3367440  56.1110467  62.8423499  48.0305466
  55.6724476  66.1244903  48.9519607  55.4304761  67.0180960  48.3766177
  54.8323511  65.8706782  49.5984255  56.8999315  66.3871628  49.7995428
  57.7403877  66.6415110  49.1537563  56.7017557  67.2151834  50.4801363
  57.1422642  65.4940918  50.3755627  57.5828125  63.9426079  46.3846726
  58.6203669  63.3483976  46.6977907  56.8097464  63.4964546  45.4252816
  55.9344939  63.9603774  45.2282842  57.1261008  62.2597348  44.6890913
  57.3579706  61.4532450  45.3847275  55.9264487  61.8498632  43.8535425
  55.7508475  62.6346497  43.1177615  56.1805584  60.9221336  43.3408573
  54.6732126  61.6430318  44.6797714  54.4368638  62.5986705  45.1477402
  53.8755385  61.3702842  43.9888107  54.8121082  60.3677136  45.9642485
  53.8355549  61.1192190  47.2605757  52.8178660  61.2779562  46.9039092
  53.8169812  60.4617274  48.1297479  54.2758263  62.0766212  47.5392213
  58.4005603  62.4029515  43.8454344  59.1120884  61.4234209  43.7460334
  58.6522785  63.5662398  43.2496162  57.9909812  64.3292036  43.2237033
  59.9190633  63.7249458  42.5444591  60.0580353  62.8984276  41.8475704
  59.9381880  65.0317721  41.7601758  59.5889768  65.8129394  42.4354004
  60.9639947  65.2443287  41.4591103  59.0480632  64.9910582  40.5302257
  58.0659950  64.5976006  40.7925881  58.9045164  66.3693136  40.0128465
  59.8861921  66.7633028  39.7498178  58.2678066  66.3613919  39.1281779
  58.4536191  67.0003439  40.7787400  59.6495415  64.0865899  39.4704889
  59.7503917  63.0768712  39.8684801  58.9993565  64.0685560  38.5958259
  60.6315180  64.4637610  39.1848962  61.0780914  63.6692192  43.5202826
  62.1117957  63.0437097  43.2466073  60.9147050  64.2999269  44.6792294
  60.0949964  64.8537155  44.8829336  61.9916461  64.2765128  45.6569628
  62.9388826  64.5081277  45.1699343  61.7391072  65.3135231  46.7531402
  60.6923921  65.2652676  47.0534036  62.3732140  65.0857686  47.6099578
  62.0467083  66.7332764  46.2820689  62.7935381  66.9282106  45.3187118
  61.4753116  67.7257994  46.9554076  61.6480630  68.6826153  46.6819849
  60.8707880  67.5189743  47.7376323  62.1690233  62.8853508  46.2304038
  63.2888598  62.5056934  46.6003611  61.1228411  62.0818011  46.2501968
  60.2171674  62.4108366  45.9475581  61.2489985  60.6716100  46.6809057
  61.7009351  60.6196853  47.6714391  59.8708839  60.0281311  46.7407143
  59.1785729  60.8586046  46.8789838  59.7212908  59.5916474  45.7531901
  59.6167494  58.9802909  47.7974303  60.3940712  58.2167989  47.7665811
  59.5972075  59.4384108  48.7862914  58.2864501  58.3503804  47.5124859
  57.6222585  58.4959645  48.3643977  57.8463586  58.8086873  46.6268371
  58.4772596  56.8811930  47.2726738  57.5310793  56.3471491  47.3600844
  58.9059190  56.7008862  46.2868544  59.4086951  56.4016773  48.3078223
  59.0114877  56.5682691  49.2213721  59.5676677  55.4118312  48.1852152
  60.2856574  56.8961063  48.2267287  62.0843993  59.9114646  45.6654421
  62.9520881  59.1817993  46.0812568  61.7920206  60.0782621  44.3862305
  61.0177890  60.6526339  44.0849636  62.5423111  59.3457778  43.3758742
  62.4951948  58.2739900  43.5686182  61.9344667  59.6217641  42.0025444
  60.8685258  59.4074444  42.0795916  62.0774488  60.6833696  41.8009260
  62.5256448  58.8176593  40.8854746  63.3809272  59.3426800  40.4600970
  62.8552542  57.8668984  41.3044143  61.5101155  58.5650383  39.8116465
  60.6141041  57.7349807  40.0699893  61.5844790  59.2060246  38.7343037
  64.0310284  59.6955950  43.4244301  64.8858884  58.8141752  43.2723962
  64.3661742  60.9658886  43.6730311  63.6706672  61.6934038  43.7572388
  65.7810126  61.3412470  43.7730124  66.2878534  61.1037786  42.8376941
  65.9347813  62.8427547  44.0463401  65.3833357  63.0515723  44.9630747
  66.9968276  63.0229181  44.2127697  65.4323420  63.7570631  42.9309515
  66.0503407  63.6017433  42.0466132  64.3994098  63.4945330  42.7024101
  65.5034532  65.2206001  43.3492309  65.0409309  65.3258671  44.3306028
  66.5509708  65.5161036  43.4082564  64.7817803  66.1109654  42.3513682
  65.2724380  66.0274847  41.3816329  63.7469260  65.7799759  42.2640666
  64.8126803  67.5432073  42.8065079  65.7715051  67.8502372  42.8870527
  64.3296007  68.1208417  42.1334011  64.3576973  67.6208515  43.7048735
  66.5138058  60.5574646  44.8582503  67.6964517  60.2473162  44.7050399
  65.8501991  60.2380683  45.9641314  64.8826342  60.4987940  46.0903837
  66.5263646  59.5366251  47.0530518  67.5312554  59.9373866  47.1860329
  65.7584721  59.7001995  48.3628956  66.4209268  59.4663958  49.1963162
  65.2581445  61.1137009  48.5011125  64.5952118  61.3480954  47.6682385
  64.7125547  61.2164679  49.4391262  66.1039805  61.8011873  48.4961640
  64.6463574  58.8007214  48.3818932  64.1647242  58.9047381  49.2057927
  66.7146221  58.0492212  46.7902691  67.4781147  57.4065328  47.5183740
  66.0395239  57.4865539  45.7877992  65.3985954  58.0584645  45.2565475
  66.1549117  56.0693440  45.4418791  66.5311419  55.5120206  46.2997489
  64.8013788  55.4980043  45.0465912  64.2445636  56.2819629  44.5333027
  65.0160417  54.6889201  44.3484490  63.9825649  54.9688895  46.1891456
  63.3316375  55.8296739  47.0600743  63.4276410  56.9048059  46.9085024
  62.5638626  55.3402505  48.1162885  62.0664257  56.0257486  48.8024013
  62.4378031  53.9788193  48.2902971  61.6824076  53.4753610  49.3227885
  61.2846246  54.1602991  49.8652165  63.0703274  53.1088842  47.4246211
  62.9690286  52.0321247  47.5603713  63.8350348  53.6068730  46.3817195
  64.3330807  52.9218180  45.6956072  67.1509811  55.9264015  44.2999390
  66.8200962  56.1815968  43.1426212  68.3618653  55.4955290  44.6158099
  68.5980651  55.2647809  45.5703068  69.3982039  55.3844820  43.6036968
  69.2519414  56.1501869  42.8418553  70.7803272  55.5723066  44.2252869
  70.8373612  54.7658953  44.9564142  71.5229858  55.4074790  43.4446524
  71.0552632  56.9019731  44.9142805  70.6563519  56.8744246  45.9282882
  72.5648687  57.1504090  44.9667760  72.9644497  57.1785518  43.9530493
  72.7599805  58.1025299  45.4602312  73.0466059  56.3472922  45.5244795
  70.3389405  58.0340813  44.2059030  69.2648974  57.8485977  44.2171643
  70.5501853  58.9739384  44.7159478  70.6857840  58.0951445  43.1743654
  69.3343410  54.0349223  42.8980176  69.1366563  52.9923219  43.5303435
  69.5133124  54.0589312  41.5787637  69.4695555  54.9435149  41.0932780
  69.7260634  52.8516575  40.7949473  69.8772387  52.0087225  41.4692660
  68.5348424  52.5469109  39.8935528  68.3058682  53.4580056  39.3407631
  68.8467944  51.7686625  39.1970505  67.2913735  52.0844629  40.6492782
  66.8295662  51.2721624  40.0880271  67.5997667  51.7191618  41.6288449
  66.2859199  53.2174727  40.8231771  66.7888907  54.1102372  41.1947830
  65.8061323  53.4413899  39.8704104  65.2610311  52.8263963  41.7812064
  65.3935755  51.9494730  42.2644629  64.1712848  53.5435138  42.0525853
  63.3057453  53.0926225  42.9510581  63.4795195  52.2145380  43.4188936
  62.4769557  53.6294844  43.1631590  63.9356768  54.7052565  41.4315532
  64.5913898  55.0492447  40.7446671  63.1032202  55.2327691  41.6525629
  70.9873709  53.0236914  39.9660752  71.3179352  54.1327147  39.5475834
  71.7051446  51.9280896  39.7468891  71.3510250  51.0285050  40.0392011
  73.0296621  51.9845748  39.1302693  73.2420236  53.0078353  38.8205280
  74.1127052  51.5359351  40.1053693  74.1154064  52.2250950  40.9498517
  73.8595159  50.5349696  40.4547450  75.4927360  51.5149859  39.4636264
  75.6800348  52.1314852  38.3861466  76.3957681  50.8785284  40.0409469
  73.0712464  51.1174907  37.8794560  73.0991832  49.8837064  37.9725671
  73.1428526  51.7698303  36.7187556  73.1427936  52.7798094  36.7252066
  73.1784636  51.0867401  35.4309618  72.2987691  50.4577584  35.2945112
  73.1889610  52.1442250  34.3496087  74.1054735  52.0593713  33.7657389
  72.3280281  52.0053807  33.6956845  73.1225560  53.5081199  34.9832965
  72.0794426  53.8126192  35.0687102  73.5691077  53.4605174  35.9764871
  73.8557623  54.5341786  34.1780834  74.1947178  54.3023948  33.0079913
  74.1117056  55.6886289  34.7909484  74.6039326  56.4201286  34.2982800
  73.8123936  55.8272941  35.7455612  74.3756721  50.1538037  35.2474865
  74.3544282  49.3249288  34.3312440  75.4351614  50.2763543  36.0560728
  75.4460598  50.9862663  36.7744080  76.6251850  49.4420231  35.8872727
  76.5241074  48.8481814  34.9788485  77.8946743  50.2944430  35.7766193
  78.0572360  50.8834433  36.6792552  78.7476192  49.6353064  35.6149902
  77.8767034  51.2590772  34.6336683  77.7602647  52.6214383  34.8146748
  77.7501928  53.2204817  33.6374448  77.6671095  54.3049924  33.5665025
  77.8525321  52.2951881  32.6987396  77.8704438  52.4602261  31.7024759
  77.9318287  51.0579889  33.2951950  78.0200598  50.1616422  32.6812901
  76.7964353  48.4347843  37.0149839  77.8878052  47.8781316  37.1746669
  75.7518542  48.1880833  37.8103818  74.8310454  48.5651550  37.6370974
  75.9700579  47.4303873  39.0411986  76.7350358  47.9224662  39.6418368
  74.6756662  47.3406661  39.8703314  74.8752590  47.0226005  40.8936086
  74.2236913  48.3324922  39.8803082  73.6303992  46.3936807  39.3182876
  73.7892245  45.0155733  39.4112252  74.6903870  44.6210625  39.8806582
  72.8266426  44.1472726  38.9198516  72.9756347  43.0693905  38.9836647
  71.6792503  44.6510126  38.3496814  70.9165668  43.9740577  37.9647840
  71.4953551  46.0198288  38.2658088  70.5878490  46.4208907  37.8144971
  72.4651918  46.8813310  38.7557166  72.3146602  47.9594678  38.7003896
  76.5415892  46.0501475  38.7491060  77.2567003  45.4862786  39.5864662
  76.2592616  45.5052906  37.5606684  75.6561550  45.9754617  36.9008950
  76.7615963  44.1823257  37.2157800  76.4989672  43.4674472  37.9955709
  76.1458330  43.7190318  35.9041915  76.1657344  44.5751535  35.2298335
  76.7421777  42.9103861  35.4816217  74.7136985  43.2503317  36.0839802
  74.0833393  44.0837343  36.3941224  74.2213920  42.7121424  34.7620419
  74.8510211  41.8783556  34.4514526  73.1922673  42.3693596  34.8692938
  74.2649654  43.4996172  34.0096556  74.6651364  42.1967298  37.1731435
  75.0297772  42.6226298  38.1078872  73.6378235  41.8572922  37.3054753
  75.2928468  41.3517284  36.8902100  78.2813484  44.1329671  37.1223872
  78.8526459  43.0376423  37.1798049  78.9432281  45.2872385  36.9754256
  78.4556473  46.1452683  36.7606024  80.3996863  45.3196293  37.0505674
  80.8264201  44.6468952  36.3066411  80.9077657  46.7336583  36.7782566
  80.3021192  47.4195094  37.3706246  81.9433465  46.7805886  37.1151098
  80.8337940  47.1287413  35.3152051  81.5395524  46.5027481  34.7691846
  79.8228989  46.9324116  34.9579309  81.1750101  48.5911995  35.0894161
  81.5801970  49.2701527  36.0627403  81.0301663  49.0687473  33.9382696
  80.8941017  44.8172457  38.3995015  81.9781163  44.2271189  38.4863327
  80.1037372  45.0072136  39.4525196  79.2735058  45.5760275  39.3672791
  80.4451886  44.4746809  40.7668259  81.4850365  44.6942454  41.0089148
  79.5497893  45.1282344  41.8200698  78.5155021  44.8676702  41.5954465
  79.8221222  44.7243664  42.7951726  79.6980462  46.6395579  41.8391275
  80.7059868  46.8766091  42.1796613  79.5627387  47.0076041  40.8221044
  78.6995920  47.3428634  42.7478258  77.8671041  46.6996104  43.4058520
  78.7786865  48.6781094  42.7868656  78.1429599  49.2017127  43.3714960
  79.4737510  49.1562132  42.2315248  80.3416575  42.9536907  40.8413639
  80.7121464  42.3686105  41.8643034  79.8650385  42.2996663  39.7904702
  79.5940425  42.8292183  38.9742379  79.6604082  40.8528952  39.7769828
  80.1628929  40.4000041  40.6316746  78.1683394  40.5247589  39.8568781
  77.6886521  40.8563276  38.9359755  77.9931094  39.4576300  39.9933711
  77.4652416  41.2219209  40.9815112  77.3102288  40.6566527  42.2322278
  76.6738325  41.5078235  43.0190944  76.4456824  41.2439828  44.0517776
  76.4208079  42.6074385  42.3278069  75.9477142  43.4302804  42.6730799
  76.9070428  42.4551467  41.0520183  76.7962423  43.2612184  40.3267094
  80.2965960  40.2983444  38.5091187  79.5962941  39.8966242  37.5687039
  81.6368379  40.2816059  38.4463690  82.6004438  40.6518339  39.4995678
  82.7244896  39.8178030  40.1902960  82.2307564  41.5212487  40.0432113
  83.8461784  40.9490079  38.7288631  84.7246111  40.7580335  39.3452913
  83.8491120  41.9899761  38.4056325  83.7922944  40.0256824  37.5542842
  84.1198159  39.0226519  37.8277045  84.3896836  40.3868250  36.7171452
  82.3096149  40.0020502  37.1668465  82.0635293  40.8175852  36.4868151
  81.9077042  38.6809555  36.5375768  81.8988331  38.5681140  35.3060565
  81.5597702  37.6796649  37.3378093  81.6979550  37.7458726  38.3361183
  81.0444444  36.4292981  36.7926917  81.6595592  36.1044477  35.9535224
  81.0726845  35.3364769  37.8749086  80.7893295  35.8722400  38.7808705
  80.3092629  34.5954778  37.6378268  82.4214020  34.6296603  38.0979635
  82.2558063  33.6925172  38.6294160  83.0786019  34.3408404  36.7502023
  83.2449475  35.2776098  36.2183272  84.0334721  33.8403196  36.9108344
  82.4271677  33.6981365  36.1580321  83.3782929  35.4211249  38.9891607
  82.9222151  35.5737927  39.9673146  84.3095571  34.8667857  39.1055925
  83.5864556  36.3880095  38.5310106  79.6309018  36.5581855  36.2099265
  79.0841849  35.5558401  35.7344654  79.0375180  37.7521561  36.2119497
  79.5256376  38.5417771  36.6098657  77.6840608  37.9562263  35.7149940
  77.2479352  36.9930545  35.4500530  76.7930487  38.6241548  36.7717182
  77.3908717  39.4863035  37.0673642  75.8849859  38.9655355  36.2747461
  76.4173105  37.8070111  38.0224592  77.3103580  37.6644116  38.6309264
  75.3598422  38.5261206  38.8379825  74.4662635  38.6686795  38.2302878
  75.1102100  37.9305822  39.7161161  75.7420155  39.4966293  39.1544582
  75.9456308  36.3978878  37.6792336  76.7404099  35.8652567  37.1569983
  75.6935110  35.8651498  38.5961453  75.0653783  36.4547104  37.0389011
  77.6954431  38.7934514  34.4397883  78.6006523  39.6061772  34.2118430
  76.6673699  38.5820009  33.6157154  75.9853921  37.9177730  33.9530680
  76.4617920  39.1737314  32.3111554  77.1881886  39.9706461  32.1518624
  76.6341965  38.1177205  31.1950668  76.0485439  37.2477407  31.4921281
  76.2105909  38.5475093  30.2873555  78.0871725  37.6906991  30.9298055
  78.4866756  37.1982994  31.8163948  78.0882608  36.9905490  30.0944070
  78.9941039  38.8760963  30.5769559  78.7243071  39.6362572  29.6305791
  80.0675702  39.0442690  31.3515972  80.7033386  39.8076469  31.1695140
  80.2393738  38.4074096  32.1164469  75.0684872  39.7855452  32.2329985
  74.1211034  39.2304837  32.8008959  74.9085230  40.9152186  31.5326974
  75.9440135  41.7227787  30.8656096  76.2109274  41.2664476  29.9123945
  76.8290596  41.7842975  31.4988615  75.2602102  43.0633484  30.6973390
  75.6669992  43.5853160  29.8312145  75.4057611  43.6725340  31.5894204
  73.8117808  42.7327031  30.5061635  73.5936058  42.4256636  29.4833120
  73.1674079  43.5682966  30.7794153  73.5791558  41.5569026  31.4646274
  73.3453837  41.9078283  32.4697642  72.4580715  40.6469404  30.9707473
  71.3340952  40.7513196  31.4783951  72.7122419  39.7622193  29.9997591
  73.6089878  39.7297314  29.5361961  71.6558499  38.8631012  29.5315363
  70.8248466  39.4422021  29.1288269  72.1959987  37.9451614  28.4251711
  72.5169595  38.5919091  27.6085924  73.0612241  37.4280292  28.8399714
  71.1844691  36.9090040  27.8929044  71.7177421  36.2144991  27.2437638
  70.7724925  36.3666580  28.7439263  70.0405543  37.5718309  27.1048966
  69.4627740  38.1841561  27.7972310  70.4819919  38.2089850  26.3385631
  69.1152854  36.5373047  26.4407724  69.7262166  35.7221749  26.0529229
  68.4291112  36.1498539  27.1938633  68.3303188  37.1521786  25.3178799
  68.9659508  37.5108776  24.6197347  67.7332690  36.4519367  24.9015954
  67.7638246  37.9072425  25.6771318  71.0611594  38.0365274  30.6762964
  69.8669590  37.7038226  30.6518435  71.8676202  37.6916636  31.6875041
  72.8484540  37.9322757  31.7005516  71.3366904  36.8908614  32.7868068
  70.8732371  35.9887086  32.3875194  72.4416382  36.4829560  33.7571210
  72.6781044  37.3641674  34.3534846  72.0245703  35.7095795  34.4021351
  73.6923467  35.9697974  33.1058580  73.4256470  35.2737482  32.3105672
  74.2490456  36.8066114  32.6840396  74.7106882  35.1322219  34.2984153
  76.2816112  35.8627830  33.9355513  76.2243081  36.9411500  34.0836726
  77.0390221  35.4451834  34.5989064  76.5502398  35.6525276  32.9003062
  70.2508228  37.6520533  33.5237901  69.2099887  37.0840620  33.8637888
  70.4782121  38.9425666  33.7824764  71.3786981  39.3641080  33.6049173
  69.4392038  39.7631049  34.3942710  69.1596679  39.3477492  35.3624851
  69.9455536  41.1862754  34.6024386  70.8254350  41.1201755  35.2423907
  70.2368140  41.5664292  33.6232805  68.9312491  42.1299644  35.2312806
  68.0426568  42.1778769  34.6018292  68.6565958  41.7600489  36.2191218
  69.5382006  43.5246792  35.3612015  70.3436175  43.4790981  36.0942260
  69.9458130  43.8108160  34.3916256  68.5817747  44.5370594  35.7819076
  68.6088356  44.8312214  36.7477418  67.6913675  45.0971211  34.9746603
  67.6265731  44.7276914  33.7019933  68.2566271  44.0201245  33.3520203
  66.9474954  45.1557369  33.0890250  66.8620375  46.0177256  35.4458428
  66.9122063  46.2883265  36.4176238  66.1838262  46.4442859  34.8308838
  68.1797702  39.7584054  33.5449125  67.0667144  39.5974107  34.0637175
  68.3401434  39.9207692  32.2307579  69.2452463  40.1327224  31.8358352
  67.1944314  39.8593617  31.3360718  66.5155954  40.6809522  31.5646980
  67.6565342  39.9961341  29.8800040  68.3299288  39.1752805  29.6333482
  66.7903477  39.9659482  29.2190123  68.1782000  40.9445122  29.7513843
  66.4181025  38.5627311  31.5386414  65.1879693  38.5758298  31.6836398
  67.1274854  37.4267474  31.5545826  68.1319483  37.4427797  31.4501960
  66.4597502  36.1290076  31.6346076  65.6302549  36.0346874  30.9337935
  67.4701901  34.9895728  31.3910247  68.3617839  35.1775247  31.9892178
  66.8681033  33.6286324  31.7820882  65.9766702  33.4397567  31.1839463
  67.5999950  32.8414457  31.6010567  66.6005237  33.6392456  32.8386807
  67.9549630  35.0083911  29.9393036  67.0814259  34.8737271  29.3014170
  68.3920850  35.9894714  29.7535481  68.9760596  33.9344853  29.6294231
  68.5394805  32.9530368  29.8145103  69.2747827  34.0073395  28.5836908
  69.8501391  34.0687800  30.2666435  65.7492100  35.9720732  32.9765424
  64.6164605  35.4695442  33.0430649  66.3993590  36.3962513  34.0632697
  67.3407752  36.7554999  33.9941649  65.7880236  36.3115566  35.3817346
  65.5056290  35.2801775  35.5929447  66.7706348  36.7792795  36.4568089
  67.5757805  36.0453873  36.4215685  67.1702725  37.7675094  36.2292317
  66.1497554  36.7897613  37.8596677  65.2238423  37.3640508  37.8284028
  65.8500356  35.3611807  38.3397369  66.7756036  34.7863759  38.3717060
  65.4105778  35.3970024  39.3365791  65.1510142  34.8853463  37.6519498
  67.0469247  37.5304261  38.8184644  67.1752907  38.5575674  38.4769936
  66.5965208  37.5316790  39.8110549  68.0185519  37.0383053  38.8615541
  64.5124363  37.1486808  35.4442895  63.4322102  36.6309889  35.7592237
  64.6331331  38.4571535  35.1618990  65.5433656  38.8468120  34.9625438
  63.4836837  39.3590328  35.1861653  63.0777781  39.4166046  36.1961283
  63.9013578  40.7556872  34.7496108  64.3774439  40.6177883  33.7788250
  62.9889435  41.3391911  34.6266335  64.8500752  41.4907074  35.6779457
  65.7959616  40.9515028  35.7295036  65.0963836  42.8973729  35.1511438
  64.1509505  43.4373847  35.0997388  65.7781320  43.4223144  35.8202898
  65.5366999  42.8411647  34.1556226  64.2671037  41.5479716  37.0630449
  64.1126931  40.5350946  37.4349818  64.9529054  42.0768946  37.7248740
  63.3125763  42.0734889  37.0346200  62.3568050  38.8510641  34.2979952
  61.1818063  38.9302074  34.6722081  62.7001496  38.3455608  33.1079205
  63.6606974  38.3676199  32.7965354  61.6943388  37.7900685  32.2091168
  60.9228465  38.5329519  32.0065750  62.3414873  37.3870306  30.8883594
  62.7358649  38.2970279  30.4361753  63.1606606  36.6956837  31.0860830
  61.3573470  36.7429814  29.9447109  60.5150716  37.4760571  29.3796196
  61.4082991  35.5047180  29.7891068  60.9980722  36.5901301  32.8288406
  59.7894764  36.3977142  32.6364418  61.7511368  35.7607607  33.5538662
  62.7539347  35.8747097  33.5927420  61.1574339  34.6290365  34.2515869
  60.5506359  34.0347920  33.5683820  62.2682735  33.7489350  34.8064000
  62.8474643  33.2980475  34.0005850  62.9217987  34.3691562  35.4198578
  61.8054533  32.6354417  35.6709809  61.1731947  31.4912295  35.2773027
  60.9677084  31.3811345  34.2125237  60.9243471  30.6933456  36.3661122
  60.4511440  29.8012404  36.3480387  61.4096207  31.3139979  37.4870445
  61.3924074  30.9075307  38.8169731  60.9390814  29.9464736  39.0597968
  61.9503483  31.7470044  39.7438495  61.9547605  31.4596320  40.7952760
  62.5148956  32.9644591  39.3747095  62.9595838  33.6239139  40.1200090
  62.5291863  33.3748421  38.0524048  62.9773580  34.3398893  37.8159168
  61.9675529  32.5395174  37.0845998  60.2150691  35.0993476  35.3560212
  59.1443755  34.5117611  35.5620294  60.5679052  36.1816718  36.0475348
  61.4607328  36.6360971  35.9192545  59.6860548  36.6760366  37.0950004
  59.3993835  35.8610914  37.7596680  60.4041617  37.7443681  37.9148396
  60.7772080  38.4400383  37.1631890  59.6881247  38.2553300  38.5585080
  61.5749929  37.2301871  38.7606393  62.2827870  36.7104064  38.1149176
  62.2678842  38.3834466  39.4390487  61.5607927  38.9034694  40.0853433
  63.0980325  38.0080714  40.0374198  62.6467798  39.0742586  38.6858440
  61.1290183  36.1866870  39.7823767  60.6852290  35.3365812  39.2642354
  61.9907677  35.8505603  40.3590118  60.3922606  36.6269916  40.4542538
  58.3681782  37.1935735  36.5209882  57.3059043  36.9897765  37.1212498
  58.4052598  37.8529257  35.3547312  59.2746880  38.0967422  34.9022410
  57.1520051  38.2658983  34.7191129  56.6079764  38.9246921  35.3959605
  57.3990687  39.0095504  33.4077350  57.9502790  38.3208794  32.7674235
  56.4161823  39.1984636  32.9760568  58.1580471  40.3099621  33.5185832
  57.6374491  40.9805583  34.2022346  59.1626327  40.1166016  33.8947767
  58.2724633  41.0900132  31.8942168  59.5161409  42.3329886  32.1953220
  60.4418338  41.8523139  32.5117765  59.6950011  42.8978563  31.2804263
  59.1725698  43.0093508  32.9780060  56.2676894  37.0676518  34.4350775
  55.0469812  37.1171902  34.6466891  56.8561421  35.9830454  33.9300800
  57.8324597  35.9565468  33.6727846  56.0378033  34.8117543  33.6538196
  55.1884505  35.0929577  33.0312252  56.8532478  33.7525552  32.9169122
  57.3303033  34.2276136  32.0596860  57.6186245  33.3796659  33.5975384
  55.9929985  32.5953655  32.4401383  55.8265210  31.9335104  33.2900405
  55.0411232  33.0159899  32.1159351  56.6139604  31.8060114  31.2970042
  55.8905001  30.9547392  30.7346948  57.8008836  32.0313668  30.9551238
  55.4382525  34.2610443  34.9447732  54.2427476  33.9351636  34.9975066
  56.2461881  34.1765501  36.0061859  57.2420408  34.3200854  35.9180138
  55.7138665  33.7936142  37.3136035  55.2767644  32.7953037  37.2931794
  56.8271045  33.8207582  38.3729360  57.3319664  34.7864308  38.3466645
  56.2333536  33.6095219  39.7172277  55.7286758  32.6437776  39.7444164
  57.0213496  33.6284255  40.4700925  55.5135016  34.4010605  39.9255094
  57.8660302  32.7564749  38.0623247  58.3004310  32.9474735  37.0810411
  58.6511021  32.7828537  38.8180137  57.3929351  31.7744993  38.0647684
  54.5525838  34.7068037  37.7002965  53.4871906  34.2462179  38.1232764
  54.7357140  36.0169703  37.5525916  55.6271600  36.3964497  37.2672520
  53.6605919  36.9468254  37.8770542  53.3949870  36.8600454  38.9306302
  54.1146684  38.3811612  37.6041731  54.6232950  38.4778712  36.6449831
  53.2891976  39.0914881  37.6503652  55.2921484  38.9071096  38.8456352
  55.4803393  40.1271675  38.3507200  52.3939520  36.6199844  37.1039517
  51.2958167  36.6011751  37.6763825  52.5215756  36.3472327  35.8051566
  53.4088138  36.3939296  35.3248159  51.3246974  36.0624982  35.0210375
  50.5796194  36.8403426  35.1881183  51.6616345  36.0196194  33.5249196
  51.8298284  37.0441573  33.1930580  52.5803884  35.4448991  33.4079241
  50.5563203  35.3878686  32.6838022  50.7681621  34.3203684  32.6232453
  49.6231832  35.5424211  33.2255290  50.4280437  35.9586652  31.2817729
  49.2866658  36.2890566  30.8870196  51.4494545  36.0872458  30.5716082
  50.6576327  34.7676893  35.4803248  49.4346415  34.7206596  35.6468768
  51.4446245  33.7146718  35.7166169  52.4391516  33.7588278  35.5461311
  50.8739989  32.4453530  36.1700076  50.1637661  32.0493486  35.4441639
  51.9803105  31.4015253  36.3947931  52.7623319  31.8288023  37.0224682
  51.3956974  30.1907749  37.0755955  50.6138646  29.7626457  36.4482648
  52.1788620  29.4497434  37.2356770  50.9709281  30.4829899  38.0359512
  52.6148248  31.0176791  35.0828138  53.0505122  31.9015735  34.6169713
  53.3959067  30.2781041  35.2589940  51.8576265  30.5953454  34.4222187
  50.0643524  32.6484042  37.4421262  48.9709339  32.0947863  37.6025636
  50.6080823  33.4147148  38.3808018  51.5324850  33.7934280  38.2319548
  49.9517650  33.6789322  39.6491972  49.2539860  32.8745458  39.8819333
  50.9846695  33.7664555  40.7670008  51.8085154  34.4088766  40.4560790
  50.4838578  34.2096849  41.6277187  51.5172976  32.4175532  41.1398627
  50.8634130  31.6286548  42.0754755  49.9570901  32.0135335  42.5429652
  51.3400458  30.3769586  42.4182624  50.8138054  29.7749009  43.1590048
  52.4848266  29.8840164  41.8107099  52.9642054  28.6352775  42.1513254
  52.4292097  28.1968684  42.8170407  53.1511760  30.6469956  40.8707588
  54.0561131  30.2707810  40.3936299  52.6561763  31.9106587  40.5330166
  53.1671781  32.5133220  39.7821676  49.1145048  34.9415197  39.6186319
  48.6274993  35.3761433  40.6645137  48.9476580  35.5460875  38.4509993
  49.5003447  35.2616767  37.6549168  48.0490808  36.6841183  38.2976013
  48.1786837  37.1282709  37.3106713  46.5912882  36.2354583  38.4450626
  46.4924057  35.7455558  39.4137303  45.9667250  37.1285469  38.4247258
  46.1390265  35.2643650  37.3275054  45.9797396  35.8518508  36.4232990
  46.9477558  34.5529812  37.1601973  44.8499735  34.5017436  37.6766426
  45.1114331  33.7099578  38.3786491  44.1683931  35.2029960  38.1580910
  44.1594389  33.8815370  36.4307554  43.1140230  33.7425919  36.7062560
  44.2306019  34.6328158  35.6442345  44.7242527  32.5777344  35.9316913
  44.6580127  31.8813301  36.6602056  44.2006879  32.2711470  35.1242360
  45.6928336  32.7063686  35.6759504  48.3974167  37.7967213  39.2834870
  47.5189545  38.4200905  39.8763007  49.6942195  38.0560153  39.4542328
  50.3860266  37.4647646  39.0161404  50.1564137  39.1530159  40.2989666
  49.4889467  39.2690805  41.1528494  51.5634577  38.8703413  40.8151265
  52.1997936  38.9949305  39.9389682  51.8287153  39.6155061  41.5651051
  51.7636349  37.4728968  41.3941075  51.6197729  36.7345252  40.6053034
  53.1617326  37.3394304  41.9612366  53.3061952  38.0772235  42.7504709
  53.2938132  36.3383780  42.3717844  53.8927545  37.5065060  41.1701656
  50.7198669  37.1629855  42.4498548  49.7259631  37.2162111  42.0055331
  50.8877463  36.1608346  42.8443309  50.7946581  37.8888582  43.2595548
  50.1409904  40.4807378  39.5339916  50.1176676  40.5193160  38.3029746
  50.1730454  41.5779977  40.2822978  50.2072013  41.5200299  41.2900539
  50.1182181  42.8981767  39.6676871  49.3698378  42.9085535  38.8752741
  49.7412472  43.9491064  40.7083584  50.3790442  43.8699852  41.5887300
  49.8458599  44.9427505  40.2726662  48.3324614  43.8402496  41.1903748
  47.2508426  44.0921354  40.3741957  46.1340572  43.9201680  41.0570973
  45.1622668  44.0677397  40.5859870  46.4555579  43.5707920  42.2902764
  45.8055433  43.3683455  43.0363302  47.8260407  43.5245760  42.4033947
  48.2857526  43.2661702  43.3573300  51.4508504  43.2774172  39.0228508
  52.5267862  42.8780078  39.4711189  51.3674419  44.0722317  37.9541034
  50.4828851  44.2481616  37.4994527  52.5683550  44.6745969  37.3866973
  53.2076895  43.9002175  36.9628023  52.1923296  45.6617999  36.2757715
  51.5989561  46.4505605  36.7382256  53.1230362  46.0832624  35.8959629
  51.4053009  45.0431812  35.1214069  52.0170126  44.2545890  34.6831923
  50.4934830  44.6093034  35.5318216  51.0425037  46.0654847  34.0427760
  50.5310112  46.9145686  34.4961313  51.9472653  46.4115798  33.5430521
  50.1616713  45.4658588  33.0503315  49.1706937  45.6267978  33.1606102
  50.5743480  44.7242890  32.0252651  51.8682048  44.4980551  31.8340743
  52.5460570  44.8914361  32.4711518  52.1689255  43.9335704  31.0523943
  49.6936400  44.2080181  31.1782782  48.7074534  44.3792444  31.3132514
  50.0133037  43.6460757  30.4023050  53.3709114  45.3819252  38.4636764
  54.6001602  45.2740730  38.5108940  52.6848225  46.1097641  39.3453371
  51.6942789  46.2683958  39.2280400  53.3575989  46.7487443  40.4653823
  54.0793669  47.4791581  40.0998062  52.3396875  47.4676686  41.3458765
  51.9232903  48.2904933  40.7647809  51.5493873  46.7561857  41.5852878
  52.9405411  48.0101221  42.6340458  52.1178803  48.2882395  43.2928180
  53.5075482  47.1960038  43.0855029  53.8613087  49.2210302  42.4264676
  53.9826999  49.7212729  41.2795502  54.4592803  49.6805104  43.4248247
  54.1528966  45.7395613  41.2830818  55.2739235  46.0282095  41.7159385
  53.5966129  44.5473309  41.5031365  52.6462378  44.3387287  41.2322644
  54.3561752  43.5205040  42.2060201  54.7024584  43.9071075  43.1645215
  53.4966331  42.2830555  42.4604069  53.2077752  41.8527845  41.5014866
  54.2616509  41.2503383  43.2680930  54.5504634  41.6797610  44.2274069
  53.6292030  40.3786908  43.4364364  55.1554160  40.9499329  42.7212464
  52.3209630  42.6646402  43.1798136  51.7787331  41.8890475  43.3411919
  55.5975936  43.1425993  41.4149642  56.6928779  43.0235667  41.9766452
  55.4584973  42.9705938  40.1012126  54.5642835  42.9721748  39.6316612
  56.6506787  42.7060186  39.3124291  57.1507697  41.8179371  39.6988478
  56.3057938  42.4721423  37.8545037  55.8962259  41.4654634  37.7711314
  55.5948964  43.1883408  37.4424545  57.4990960  42.5154958  36.9877418
  58.4039997  41.4744538  36.9989175  58.2027414  40.6133458  37.6361679
  59.5416146  41.5077583  36.2271974  60.2420617  40.6726588  36.2363290
  59.7892195  42.5940064  35.4484889  60.6840475  42.6355727  34.8274776
  58.8900668  43.6591470  35.4474710  59.0849334  44.5285854  34.8196143
  57.7659779  43.6173095  36.2302018  57.0825457  44.4662463  36.2482756
  57.6566816  43.8480286  39.4273737  58.8600883  43.6101040  39.5958941
  57.1921130  45.1005794  39.3368065  56.2137969  45.3130889  39.2032522
  58.1529321  46.2023886  39.2951870  59.0073844  45.9272286  38.6768849
  57.5017018  47.4482564  38.7006329  56.4538776  47.5215322  38.9918277
  58.0485256  48.3048964  39.0946528  57.6055204  47.4349195  37.1921851
  58.8091701  47.7440654  36.5526616  59.6707813  48.0213659  37.1599754
  58.9198494  47.7025304  35.1632424  59.8609506  47.9604208  34.6775234
  57.8252873  47.3424521  34.4012985  57.9273460  47.2918072  33.0373879
  58.8020115  47.5250513  32.7177679  56.6288255  47.0219021  35.0044450
  55.7657528  46.7399348  34.4013692  56.5251619  47.0598545  36.4015418
  55.5859302  46.7925969  36.8858116  58.7883273  46.4794994  40.6594291
  59.9376503  46.9304504  40.7149437  58.0893415  46.2028348  41.7658705
  57.1024230  45.9898843  41.7386071  58.7558251  46.2395867  43.0691276
  59.2075697  47.2199897  43.2202433  57.7644653  45.9812482  44.1969139
  57.2049152  45.1037787  43.8727996  58.3468054  45.7328486  45.0842006
  56.7982518  47.1041517  44.5245726  56.2981540  47.4549978  43.6218489
  55.7714828  46.5473668  45.4852754  56.2708126  46.1967198  46.3885003
  55.0562015  47.3275187  45.7457297  55.2463575  45.7159976  45.0149891
  57.5620165  48.2664849  45.1221326  58.3029695  48.6216622  44.4059363
  56.8692321  49.0742244  45.3581578  58.0645926  47.9417163  46.0331988
  59.8616919  45.2066015  43.1206755  60.9912961  45.4968425  43.5292445
  59.5505330  43.9820939  42.7027161  58.6063767  43.7447971  42.4337207
  60.5570596  42.9315177  42.6866542  60.9165199  42.7608410  43.7014236
  59.9491873  41.6307561  42.1580444  59.5929057  41.7832919  41.1392724
  60.7062198  40.8465585  42.1640660  59.1147623  41.3344171  42.7936681
  61.7557267  43.3506862  41.8512502  62.8995407  43.2813796  42.3112936
  61.5108972  43.8165320  40.6244999  60.5787684  43.8097506  40.2356693
  62.6077890  44.2858772  39.7839890  63.2801102  43.4605671  39.5495818
  62.0541697  44.8519779  38.4755149  61.6578571  44.0154142  37.9000179
  61.2424567  45.5326647  38.7322006  63.0874876  45.5881721  37.6490747
  64.0748440  45.2121250  37.9170611  62.8998139  45.3944349  36.5929750
  63.0610459  47.0792258  37.8778382  61.9957266  47.6973318  37.8656505
  64.2339885  47.6717673  38.0819100  64.2719935  48.6685678  38.2401691
  65.0814146  47.1222652  38.0777027  63.4556779  45.3269911  40.5121285
  64.6877082  45.2305838  40.5439098  62.8114766  46.3214012  41.1240593
  61.8053890  46.4023482  41.0875258  63.5658515  47.3743166  41.7937620
  64.3389766  47.7639128  41.1314996  62.6251561  48.5178006  42.1720494
  62.0640791  48.7930049  41.2789904  61.9370218  48.1540696  42.9351162
  63.3582236  49.7195770  42.6919375  64.1268688  50.3377105  41.9244895
  63.1662587  50.0413611  43.8808099  64.3163571  46.8397079  43.0164688
  65.4621664  47.2345970  43.2688963  63.6994476  45.9521452  43.7972294
  62.7268355  45.7090186  43.6746957  64.4299181  45.3452168  44.9048560
  64.7751714  46.1217529  45.5874182  63.5304508  44.3782321  45.6788199
  63.1436687  43.6114270  45.0076204  64.1002278  43.9060425  46.4791268
  62.3346283  45.0275896  46.3261595  62.2335700  46.3977671  46.4092305
  63.0347139  47.0165886  46.0050918  61.1484807  46.9816227  46.9881181
  61.0843855  48.0682221  47.0455143  60.1436082  46.2115014  47.4953001
  59.2747263  46.6816150  47.9558837  60.2273497  44.8402026  47.4251855
  59.4264475  44.2224593  47.8314477  61.3134116  44.2541727  46.8468693
  61.3819099  43.1677063  46.7921092  65.6729341  44.6174108  44.4019449
  66.7614674  44.7612751  44.9709479  65.5313205  43.8433514  43.3233928
  64.6210093  43.7167076  42.9045920  66.6663185  43.1228169  42.7467441
  67.0821413  42.4311088  43.4793630  66.2094148  42.3240630  41.5245943
  65.4404842  41.6032380  41.8025445  65.8113613  43.0084192  40.7753880
  67.3198143  41.5363368  40.8478947  67.7535452  40.3229530  41.3709801
  67.2891555  39.9422615  42.2806592  68.7654399  39.5968401  40.7498738
  69.0954551  38.6482703  41.1734373  69.3516656  40.0791216  39.5957265
  70.1462808  39.5157065  39.1065945  68.9260155  41.2836560  39.0602157
  69.3854295  41.6681875  38.1496255  67.9108197  42.0034235  39.6855455
  67.5711656  42.9480160  39.2607161  67.7978243  44.0649101  42.3511446
  68.9423510  43.8942286  42.7882400  67.5139764  45.0253082  41.4625919
  66.5871310  45.1363553  41.0769424  68.5764677  45.8979265  40.9725984
  69.3595961  45.3004766  40.5058407  68.0259974  46.8808861  39.9341776
  67.1601113  47.3782932  40.3711292  68.8007466  47.6184600  39.7247775
  67.6165548  46.1948003  38.6399561  68.1451574  45.0966758  38.3673854
  66.7755164  46.7353380  37.8878953  69.2449455  46.6438425  42.1218541
  70.4719072  46.8121107  42.1351117  68.4601652  47.0849176  43.1075897
  67.4575137  46.9635881  43.0993226  69.0518835  47.8539686  44.1885171
  69.7997023  48.5430842  43.7961068  67.9659515  48.6627334  44.8948768
  67.1018444  48.0149206  45.0423783  68.3531130  48.9774289  45.8639860
  67.5509444  49.8856156  44.0943149  68.4506893  50.3533236  43.6945533
  66.9171664  49.5557165  43.2711539  66.7955866  50.8877511  44.9423273
  67.3594094  51.0975734  45.8512703  66.6556706  51.8114477  44.3808049
  65.4879354  50.3652349  45.3144768  64.8556236  50.1682940  44.5519183
  65.0831263  50.1096445  46.5586750  65.8704385  50.3524820  47.6091966
  66.7931193  50.7377238  47.4665471  65.5397654  50.1498363  48.5417681
  63.8619663  49.6296403  46.7476279  63.2590151  49.4650321  45.9542465
  63.5401537  49.4307515  47.6840993  69.8129509  46.9545110  45.1547348
  70.8794459  47.3427089  45.6514438  69.3109248  45.7368170  45.3903045
  68.4083374  45.4643229  45.0281134  70.0337774  44.7879779  46.2354143
  70.2287704  45.2409994  47.2074474  69.2184675  43.5065584  46.4467075
  68.3018606  43.7773721  46.9707218  68.9702509  43.1148662  45.4602665
  69.9650891  42.4384599  47.2455766  70.1995351  42.6074526  48.6113315
  69.8375231  43.5136470  49.0969839  70.8823855  41.6439317  49.3531589
  71.0676696  41.8019749  50.4156060  71.3301868  40.4771716  48.7329485
  71.9976826  39.5331585  49.4911369  72.0898356  39.7885063  50.4119545
  71.1008896  40.2772972  47.3721745  71.4401581  39.3657293  46.8801976
  70.4267258  41.2626376  46.6355868  70.2529953  41.1221694  45.5687286
  71.3911164  44.4516061  45.6378485  72.4217590  44.5284595  46.3164016
  71.4034402  44.0495613  44.3653262  70.5432222  43.9048084  43.8562379
  72.6599506  43.7469469  43.6968165  73.1396506  42.8887105  44.1673666
  72.3954592  43.4151413  42.2334389  71.9032396  44.2775689  41.7839528
  73.3604641  43.2564829  41.7520937  71.5376367  42.1967010  42.0479748
  70.6184447  42.3260764  42.6193319  71.2960722  42.0970475  40.9897604
  72.3826644  40.6942867  42.6105221  73.3253757  40.2516475  41.1522896
  74.0085705  41.0628210  40.9006124  73.8964098  39.3444295  41.3497135
  72.6453897  40.0780616  40.3182702  73.6561729  44.8934424  43.8087248
  74.8640832  44.6545759  43.8872461  73.1757123  46.1423056  43.8169242
  72.1943007  46.3367391  43.6786263  74.0894701  47.2677259  43.9574935
  74.8527835  47.1976045  43.1825516  73.3284195  48.5768916  43.7749526
  72.5664293  48.6658034  44.5492689  74.0218790  49.4144547  43.8504650
  72.8523063  48.5873162  42.7944901  74.8077426  47.2427288  45.3033998
  75.9011007  47.8060794  45.4338495  74.2142506  46.6130781  46.3116687
  73.2825599  46.2425992  46.1900250  74.8461113  46.4745613  47.6124497
  75.4682425  47.3466375  47.8137833  73.7827962  46.3706543  48.7048189
  74.2558950  46.5168444  49.6758525  72.7138767  47.4196597  48.5025950
  72.2399781  47.2738198  47.5318992  71.9643794  47.3317417  49.2891211
  73.1652143  48.4110945  48.5407005  73.1787242  45.0772283  48.6474051
  72.5093643  45.0060134  49.3318656  75.7699492  45.2657537  47.7142963
  76.4450251  45.1231573  48.7335018  75.8214755  44.3981158  46.7069555
  75.2826506  44.5808665  45.8724681  76.5789725  43.1513610  46.7830199
  77.0599103  43.0735358  47.7580795  75.6570962  41.9424184  46.5939623
  75.2539055  42.0013928  45.5829933  76.2756625  41.0497052  46.6863690
  74.5054140  41.8706611  47.5985612  74.0033736  42.8378016  47.6249339
  73.8052033  41.1075460  47.2587637  74.9595297  41.5209226  49.0054041
  74.5981232  42.2091596  49.9660269  75.7492572  40.4437049  49.1362075
  76.0775893  40.1701728  50.0513467  76.0116487  39.9114651  48.3189115
  77.7118592  43.1084232  45.7554917  77.8113999  43.9521923  44.8521439
  78.5806837  42.0982949  45.9229513  78.4363782  41.4732053  46.7030400
  79.7222355  41.8582718  45.0460098  79.5473161  42.3687563  44.0989575
  81.0377069  42.3610812  45.6355678  81.3257617  41.6484967  46.4084501
  81.7703891  42.3373107  44.8289007  80.9854000  43.7338376  46.2194789
  81.1150720  44.4402773  45.3995832  80.0166217  43.8990394  46.6909405
  82.0864967  43.9390695  47.2421063  83.2551049  43.5862760  46.9347715
  81.7743727  44.4238208  48.3595819  79.8735012  40.3685137  44.7829784
  79.5237781  39.5325107  45.6236810  80.3973827  40.0570779  43.5918177
  80.4375826  40.7806998  42.8883586  80.8360622  38.7085441  43.2264781
  81.0868892  38.6832970  42.1660313  82.0705860  38.2903607  44.0316487
  81.7756218  38.2178453  45.0784710  82.4243371  37.3189377  43.6862540
  83.1950316  39.2788508  43.9173578  83.7280196  39.4969495  42.8408454
  83.5835630  39.8690457  45.0398012  84.3360793  40.5423667  45.0184015
  83.1251206  39.6424375  45.9107663  79.7272530  37.6681666  43.3879728
  79.9751890  36.5213142  43.7874303  78.4919885  38.0372783  43.0570948
  78.2643044  39.0010588  42.8586346  77.4199105  37.0580103  43.0350972
  77.4412200  36.3935897  43.8989203  76.0572174  37.7664080  42.9940950
  76.0845549  38.5439710  42.2307159  74.9527207  36.7760083  42.6681662
  74.9244608  35.9983428  43.4314084  73.9944612  37.2948686  42.6432053
  75.1454951  36.3230607  41.6956549  75.8028968  38.4678476  44.3231975
  76.5870595  39.2034546  44.5022877  74.8356174  38.9692628  44.2907492
  75.8038869  37.7331557  45.1283855  77.6064180  36.1376106  41.8387609
  78.0225590  36.5664678  40.7550626  77.3131544  34.8623835  42.0338564
  77.0247100  34.5373516  42.9455874  77.4631768  33.8864503  40.9718104
  78.0262915  34.2980746  40.1342148  78.1730444  32.6211514  41.4643787
  78.2561513  31.9060316  40.6459679  79.5584525  32.9861898  41.9584327
  79.4761397  33.7009763  42.7772158  80.0675362  32.0887956  42.3100261
  80.1295434  33.4317243  41.1439047  77.3473993  31.9526615  42.5659827
  76.3669055  31.6834544  42.1732213  77.8595961  31.0541397  42.9100942
  77.2268023  32.6435928  43.4003514  76.0916085  33.5597416  40.4005470
  75.0609824  33.7051644  41.0577380  76.1015077  33.1081945  39.1450438
  76.9842458  33.0067894  38.6648462  74.8746262  32.8206952  38.4067194
  74.3055084  33.7345579  38.2362520  75.2480494  32.2121871  37.0430148
  75.8983992  32.9427199  36.5619055  75.8186165  31.3111373  37.2680979
  74.0919254  31.8620659  36.1034844  73.1634463  31.8986905  36.6732967
  74.0588718  32.6062672  35.3077621  74.2616974  30.4573917  35.4869516
  74.9005113  29.8759650  36.1517515  73.2762417  29.9945756  35.4342465
  74.8791206  30.4957560  34.0955865  74.2730662  31.1481953  33.4669995
  75.8867778  30.9034382  34.1763411  74.9409761  29.1305220  33.4837965
  74.0073184  28.7527511  33.4084820  75.3544629  29.1920512  32.5643712
  75.5028678  28.5259148  34.0658849  73.9419020  31.8978507  39.1899906
  72.7169484  32.0581927  39.1409385  74.5005680  30.9343005  39.9313153
  75.5045081  30.8497436  40.0024052  73.6716215  29.9360377  40.6044898
  72.9611313  29.4977424  39.9036331  74.5562303  28.8172434  41.1698584
  75.2842117  28.5274144  40.4121365  75.2896234  29.2877623  42.4277346
  74.5622430  29.5773403  43.1861290  75.9106970  28.4781839  42.8110746
  75.9190876  30.1434046  42.1832929  73.7433155  27.6824051  41.4990720
  74.2980315  26.9832188  41.8526664  72.8089146  30.5270860  41.7212578
  71.8699868  29.8642921  42.1798381  73.1113219  31.7406662  42.1772830
  73.9241268  32.2193118  41.8162484  72.3405116  32.3870497  43.2309474
  71.8415542  31.6405467  43.8489070  73.2841852  33.2072521  44.1192379
  74.1498390  32.5538864  44.2281234  73.5730932  34.1039400  43.5709835
  72.7674037  33.5999957  45.4991939  71.8821599  34.2276365  45.3966698
  72.4087723  32.3426317  46.2655151  73.2936833  31.7146564  46.3688503
  72.0379100  32.6124967  47.2543199  71.6364213  31.7951325  45.7253124
  73.7904048  34.4504689  46.2679025  73.9998264  35.3619440  45.7080318
  73.3857717  34.7103948  47.2460701  74.7123833  33.8832666  46.3957157
  71.2256446  33.2795276  42.6915812  70.3765976  33.7179635  43.4704041
  71.1987140  33.5460257  41.3836976  71.8477565  33.1069912  40.7464442
  70.2605295  34.5256133  40.8488275  70.4107701  35.4865644  41.3408639
  70.4717547  34.7073842  39.3504679  70.5957919  33.6923264  38.9731461
  69.5782103  35.1510382  38.9113216  71.6892581  35.5407476  38.9740320
  72.5694022  35.1012251  39.4433582  71.8854048  35.5816877  37.4729696
  71.0057981  36.0215421  37.0029494  72.7624712  36.1843011  37.2369351
  72.0293251  34.5687281  37.0970704  71.5454749  36.9288358  39.5409717
  71.4670347  36.8721105  40.6266645  72.4175484  37.5243318  39.2708354
  70.6476466  37.3959649  39.1362574  68.8226544  34.1283583  41.1177376
  67.9936944  34.9698651  41.4623206  68.4927622  32.8574325  40.9260400
  69.1599746  32.1506070  40.6515868  67.0951544  32.4786833  41.0375809
  66.4910485  33.0983129  40.3748485  66.9033600  31.0116781  40.6452548
  67.5585783  30.8024726  39.7996654  67.1994646  30.3961206  41.4946728
  65.4774028  30.6938775  40.2669563  64.8184617  30.9860170  41.0846066
  65.2279459  31.2704975  39.3762360  65.2604211  29.2410019  39.9730118
  66.0083933  28.3870481  40.4416595  64.2249494  28.9421169  39.2033398
  64.0322603  27.9777011  38.9733951  63.6327298  29.6799713  38.8498599
  66.5776791  32.7430488  42.4412348  65.4278690  33.1740453  42.6098904
  67.4249411  32.5288177  43.4530615  68.3540900  32.1723363  43.2807169
  67.0130828  32.7465775  44.8356212  66.0519482  32.2659247  45.0180831
  68.0432200  32.1532479  45.7894657  68.1924228  31.1222950  45.4685700
  68.9794883  32.7027530  45.6917631  67.5937696  32.1716642  47.2439980
  67.3490279  33.1930819  47.5353884  66.3767679  31.2977017  47.4073483
  66.6208757  30.2759593  47.1165688  66.0559415  31.3116698  48.4489701
  65.5720917  31.6725220  46.7748087  68.7035127  31.7022876  48.1472503
  69.5658552  32.3596146  48.0359575  68.3631326  31.7224825  49.1825448
  68.9859518  30.6845365  47.8779735  66.8147521  34.2289512  45.1244084
  65.8559590  34.6148428  45.8043330  67.7110419  35.0770994  44.6211765
  68.5327811  34.7540002  44.1308185  67.5605533  36.5086884  44.8487996
  67.3561472  36.7590279  45.8897835  68.8184857  37.2550844  44.3806403
  69.0288645  36.9874969  43.3451510  68.5996913  38.7867617  44.4841078
  68.3897044  39.0551913  45.5194588  69.4978188  39.3060126  44.1496737
  67.7575367  39.0772561  43.8560250  70.0375009  36.7683825  45.1737407
  69.9655055  37.1929750  46.1750591  69.9738948  35.6819602  45.2349001
  71.3619649  37.1621719  44.5526659  71.4265018  38.2485445  44.4915963
  72.1788169  36.7841779  45.1674606  71.4348900  36.7375312  43.5514357
  66.3049527  37.0346985  44.1555359  65.5623092  37.8591730  44.7136519
  66.0410585  36.5606291  42.9408240  66.6642382  35.8959078  42.5050579
  64.8646742  36.9773275  42.2113012  64.9106851  38.0610047  42.1034773
  64.9062465  36.5126164  41.2262050  63.5556891  36.6030498  42.8785246
  62.7305899  37.4792900  43.1684479  63.3400159  35.3052440  43.1216506
  64.0135283  34.5983966  42.8631026  62.0571344  34.8721448  43.6676278
  61.2206532  35.3031708  43.1175233  61.9499943  33.3279215  43.6424052
  62.3806366  32.9670018  42.7083899  62.6919357  32.6932649  44.8262523
  62.2615214  33.0533751  45.7606852  62.5957386  31.6086486  44.7767112
  63.7463116  32.9663220  44.7834675  60.4872772  32.8788214  43.6338231
  60.4803814  31.7900841  43.6858272  60.0156211  33.2877248  44.5273766
  59.7308833  33.3246242  42.4227289  60.2017080  32.9157039  41.5287445
  58.7020455  32.9701324  42.4854002  59.7369498  34.4133453  42.3702928
  61.8403170  35.4460086  45.0652206  60.7066222  35.7624802  45.4409277
  62.9078806  35.6209629  45.8494623  63.8306694  35.3075393  45.5842721
  62.7337383  36.2264361  47.1704477  61.9280127  35.7237302  47.7054172
  64.0163692  36.0961402  47.9864128  64.8193716  36.6370223  47.4856806
  63.8577177  36.5189375  48.9784673  64.3709343  34.7309436  48.1068325
  65.1781381  34.6541207  48.6207587  62.3197716  37.6839491  47.0421449
  61.4656610  38.1637748  47.7963255  62.9069293  38.3991390  46.0778865
  63.6873473  38.0246757  45.5574787  62.4709033  39.7617046  45.7868496
  62.5877340  40.3885966  46.6708497  63.3156441  40.3499341  44.6553519
  63.1000999  39.7941193  43.7428225  63.0291605  41.3930043  44.5210698
  64.6976911  40.2741066  44.9371160  65.1942275  40.6513964  44.2072503
  60.9925970  39.7922784  45.4179748  60.2460571  40.6773901  45.8529488
  60.5571631  38.8404914  44.5902383  61.1908758  38.1949106  44.1410912
  59.1427345  38.7569280  44.2645992  58.7805156  39.7284737  43.9284511
  58.9174228  37.7377568  43.1465904  59.6230491  38.0148069  42.3633700
  59.1579490  36.7406916  43.5155188  57.4997505  37.7417846  42.5787587
  56.7970608  37.5634694  43.3927192  57.1799051  39.0715083  41.9160196
  57.8819382  39.2503134  41.1016014  56.1644421  39.0460699  41.5206861
  57.2636115  39.8731975  42.6497689  57.3371408  36.6109331  41.5993354
  57.5188739  35.6626128  42.1050637  56.3236480  36.6198484  41.1982692
  58.0509503  36.7300623  40.7842383  58.3187526  38.3960106  45.4924467
  57.1663534  38.8307993  45.6081881  58.8962216  37.6222260  46.4215838
  59.8218645  37.2476378  46.2700309  58.1864238  37.2444452  47.6446770
  57.2183684  36.8090568  47.3968767  59.0071069  36.2051637  48.4253947
  59.2440412  35.3441127  47.8004526  59.9315021  36.6749697  48.7613647
  58.3188352  35.6653269  49.6654723  57.0649533  35.0784449  49.5891925
  56.5654074  35.0222504  48.6220337  56.4432891  34.5649326  50.7250709
  55.4567126  34.1082598  50.6462201  57.0706018  34.6335529  51.9397556
  56.5837901  34.2347616  52.8297443  58.3189691  35.2076696  52.0363489
  58.8181537  35.2625410  53.0037701  58.9421302  35.7165154  50.9029164
  59.9334879  36.1630087  50.9800768  57.8980680  38.4679643  48.5069855
  56.7684738  38.6579974  48.9791110  58.9228114  39.2999613  48.7369246
  59.8552161  39.0570948  48.4340440  58.7358801  40.5523078  49.4715498
  58.3052848  40.3973584  50.4608311  60.0752624  41.3000086  49.6064811
  60.4959333  41.4558987  48.6130856  59.8689655  42.6413716  50.2840272
  59.4487206  42.4862618  51.2777252  60.8258621  43.1560308  50.3710659
  59.1838597  43.2470801  49.6908607  61.1003190  40.4435496  50.3447562
  60.8260467  40.4384509  51.3996730  61.0307499  39.4311435  49.9468950
  62.4981402  40.9399524  50.1975276  62.5686031  41.9522052  50.5956220
  63.1760961  40.2862558  50.7463042  62.7733055  40.9448999  49.1428431
  57.7104730  41.4189350  48.7655622  56.7697550  41.9441677  49.3744212
  57.8973323  41.5987565  47.4640059  58.6911225  41.1882825  46.9933600
  57.0029351  42.4434653  46.6948915  57.0181561  43.4564869  47.0969546
  57.4606883  42.4897563  45.2344419  57.4420401  41.4837667  44.8152317
  56.7912417  43.1331872  44.6635321  58.4751014  42.8853133  45.1834517
  55.5797162  41.9438190  46.8065050  54.6558311  42.7248402  47.0177474
  55.3784885  40.6394203  46.6762078  56.1265258  39.9848924  46.4969516
  54.0134404  40.1365152  46.7026653  53.4170211  40.7208696  46.0020134
  53.9768636  38.6711798  46.2712660  54.5622998  38.0718833  46.9685522
  52.9454262  38.3187307  46.2671782  54.3967356  38.5761101  45.2698826
  53.3914700  40.3288894  48.0819879  52.2245892  40.7309767  48.1924468
  54.1645551  40.0820828  49.1486110  55.0792001  39.6639057  49.0555954
  53.6581784  40.3494056  50.4938776  52.7451950  39.7781549  50.6619046
  54.6933328  39.9459526  51.5579204  55.6687369  40.2672535  51.1926098
  54.4475336  40.4948772  52.4669664  54.7312342  38.4592085  51.8598018
  53.7014042  38.1184918  51.9668675  55.1911959  37.9613979  51.0061497
  55.5143018  38.1211926  53.1293811  55.2118996  38.8302370  53.9000353
  55.2298578  37.1133735  53.4318572  57.0139116  38.1873143  52.9444264
  57.3193699  37.4879628  52.1661570  57.3046720  39.1981216  52.6583739
  57.6731126  37.8270355  54.2158627  57.4041577  36.8902711  54.4808824
  58.6754589  37.8692418  54.0991558  57.3905343  38.4752060  54.9370586
  53.2716652  41.8158284  50.6450026  52.2789006  42.1392083  51.3041369
  54.0362014  42.7151111  50.0268304  54.8478949  42.4320947  49.4965902
  53.7516668  44.1420461  50.1481380  53.5223817  44.3921511  51.1839831
  54.9683753  44.9516355  49.7088438  55.2456460  44.5900766  48.7186442
  54.6613937  45.9953230  49.6411768  56.1614152  44.8344011  50.6429903
  56.4071506  43.7828135  50.7909038  57.3321427  45.5388085  50.0409832
  57.0873101  46.5906226  49.8931894  58.1894044  45.4562458  50.7091048
  57.5756163  45.0845401  49.0805348  55.8293995  45.4483626  51.9762206
  54.9774189  44.9283678  52.4142091  56.6886905  45.3610355  52.6411222
  55.5812652  46.5010132  51.8403715  52.5283364  44.5548581  49.3332281
  51.7255553  45.3740933  49.7865108  52.3591240  44.0100860  48.1345941
  52.9057292  43.2130560  47.8412252  51.4294633  44.5993511  47.1797755
  51.1283230  45.5935368  47.5099399  52.1091987  44.7226134  45.8128958
  52.8887836  45.4767478  45.9207281  52.5664678  43.7552112  45.6051989
  51.1827502  45.1082423  44.6552669  51.7692399  45.0495830  43.7383756
  50.3803818  44.3712926  44.6204926  50.5846302  46.5043745  44.7870832
  51.1455250  47.3381584  45.5455319  49.5466767  46.7528089  44.1232046
  50.1111860  43.8436111  47.0255842  49.0859697  44.4667895  46.7421917
  50.0892170  42.5280065  47.2020552  50.9274090  42.0407601  47.4851178
  48.8806768  41.7452142  46.9646595  48.2616512  42.2329388  46.2116447
  49.2512377  40.3502336  46.4632738  49.7035779  39.8066868  47.2927582
  48.3318501  39.8495223  46.1597698  50.2068896  40.3838062  45.3075193
  51.0160690  41.0684755  45.5616009  50.6110659  39.3817065  45.1642118
  49.5420552  40.8426513  44.0374696  48.3015081  40.7330962  43.9732395
  50.2455551  41.3025886  43.1062045  48.0331867  41.6170456  48.2273841
  48.5587572  41.4903094  49.3356433  46.7119898  41.6301013  48.0494562
  46.3008870  41.8836650  47.1624391  45.8208296  41.3452703  49.1684002
  46.0541455  41.9724894  50.0287833  44.3560655  41.5595578  48.7615133
  44.0585493  40.7830955  48.0567503  43.4708040  41.4924402  49.9900752
  43.7674365  42.2689569  50.6951508  42.4316368  41.6448497  49.6985216
  43.5758359  40.5151815  50.4612790  44.2003689  42.8914281  48.0375650
  44.7566691  42.8258410  47.1025093  43.1408511  43.0272869  47.8206229
  44.6939371  44.0430730  48.8250740  45.7535731  43.9081431  49.0420195
  44.5545335  44.9609291  48.2539296  44.1377563  44.1095875  49.7601347
  46.0466272  39.9261927  49.6757111  46.3016663  39.7083248  50.8643989
  45.9598189  38.9380501  48.7847883  45.7005960  39.1619692  47.8346498
  46.1738523  37.5359760  49.1318198  46.3991833  37.4554948  50.1952331
  44.9372571  36.6998158  48.8318559  44.7537796  36.7726999  47.7598843
  45.1319912  35.6605892  49.0967839  43.7293187  37.1898119  49.5811914
  42.6665788  37.8085522  48.9177749  42.7189804  37.9287300  47.8356886
  41.5469721  38.2709903  49.6201628  40.7193448  38.7469752  49.0942606
  41.4971276  38.1182389  51.0015261  40.3998818  38.5650023  51.7269639
  39.7247717  38.9678692  51.1760336  42.5557382  37.5114117  51.6718003
  42.5185316  37.3894700  52.7543188  43.6586683  37.0617487  50.9606552
  44.4930028  36.5965876  51.4856420  47.3809981  37.0393622  48.3499025
  47.2326382  36.3716418  47.3164559  48.5931533  37.3416616  48.8143544
  48.9399868  38.0915504  50.0274077  48.3181982  37.7573236  50.8579326
  48.7805216  39.1568346  49.8605563  50.3795622  37.7555184  50.2186728
  50.4738960  36.8330183  50.7915547  50.8836801  38.5642874  50.7476898
  50.9203436  37.6006185  48.8558733  51.7817709  36.9343961  48.9026669
  51.2075010  38.5311191  48.3661703  49.7808703  36.9270902  48.0749289
  49.6950925  37.2868950  47.0496090  49.9271425  35.4218858  48.0696231
  49.4349603  34.7281836  48.9819975  50.6147262  34.8537817  47.0739644
  51.2844887  35.5067491  45.9318554  52.2169362  35.9620849  46.2654887
  50.6334551  36.2758987  45.5163278  51.5046323  34.3830936  44.9898766
  52.3724296  34.5903128  44.3637079  50.6252744  34.2518314  44.3593202
  51.7291304  33.1731815  45.8577816  52.7792133  33.1889884  46.1496295
  51.4917567  32.2086122  45.4090508  50.8447403  33.4103357  47.0841250
  49.8901993  32.8873382  47.0256145  51.5536338  33.0251952  48.3688860
  52.2538051  33.8363148  48.9755507  51.3434841  31.7847288  48.7997902
  50.6898571  31.1703506  48.3356667  52.0220689  31.2970004  49.9907850
  52.0372226  32.0763195  50.7527110  51.3000245  30.0790310  50.5542736
  51.3179342  29.3130568  49.7789918  51.8766501  29.7383805  51.4142505
  49.8943010  30.3314297  50.9689174  49.3681269  30.8254660  50.1521128
  49.4132116  29.3777790  51.1861855  49.8519675  31.1994132  52.1859279
  50.5931380  30.8565962  52.9078986  50.0657844  32.2316902  51.9088250
  48.4710771  31.1183601  52.8032617  47.7426985  31.4727814  52.0739121
  48.2608257  30.0776123  53.0497114  48.3828535  31.9398214  54.0246073
  48.5772213  32.9043082  53.7963832  47.4535022  31.8664938  54.4132320
  49.0574115  31.6112988  54.7007312  53.4787579  30.9463034  49.6771212
  53.8422258  30.6458514  48.5347747  54.3168277  31.0015058  50.7200463
  53.9825251  31.2630504  51.6365263  55.7437060  30.7519519  50.5497227
  56.1915984  31.5499124  49.9574806  56.4407683  30.7030860  51.9109065
  56.3750506  31.7267559  52.2795260  55.8709797  30.0442307  52.5661552
  57.8999877  30.2627640  51.8924105  57.9997517  29.3670713  51.2793178
  58.7567874  31.3639884  51.3168532  58.6578987  32.2599321  51.9297193
  59.7991808  31.0455831  51.3052417  58.4329224  31.5828604  50.2993529
  58.3685106  29.8863353  53.2746756  57.7607165  29.0647359  53.6537007
  59.4125968  29.5760898  53.2330464  58.2715171  30.7455745  53.9383014
  56.0005915  29.4661701  49.7788142  56.8804178  29.4322196  48.9081863
  55.2524596  28.3903135  50.0786964  54.5496248  28.4107195  50.8037523
  55.5159848  27.1188156  49.4033383  56.5822175  26.8992923  49.4586243
  54.7421792  25.9589740  50.0468516  55.0270388  25.0054218  49.6022254
  54.9599068  25.9408131  51.1147303  53.2593115  26.0654806  49.9151674
  52.4607952  26.6214092  50.8958025  51.1959721  26.5846505  50.5163814
  50.4066265  26.9784154  51.1566795  51.1435460  26.0225180  49.3206730
  50.3086748  25.8725228  48.7724109  52.4184674  25.6685612  48.9329693
  52.5779709  25.1637858  47.9801516  55.2106401  27.1781067  47.9138786
  55.6852524  26.3210629  47.1612672  54.4589516  28.1725765  47.4559746
  53.9477582  28.8195276  48.0392713  54.3020825  28.2724387  46.0151871
  54.2942828  27.2753730  45.5748482  52.9969727  28.9658903  45.6688084
  52.6772715  29.5455229  46.5347855  53.1786490  29.6374535  44.8297037
  51.9222898  27.9834918  45.2998318  51.9929200  27.7379548  44.2401980
  52.0435880  27.0760565  45.8913975  50.5645323  28.5522179  45.5694748
  50.4299614  29.5550506  46.2980757  49.5321336  27.9302535  44.9844953
  48.5925906  28.2705960  45.1312174  49.6980789  27.1238618  44.3994346
  55.4773247  28.9839861  45.3696640  55.8739849  28.6295520  44.2524214
  56.0637305  29.9667808  46.0496845  55.6584424  30.3749730  46.8798773
  57.2873039  30.5477280  45.5232147  57.1312647  30.8977995  44.5028222
  57.6979985  31.7288839  46.3838131  57.6144743  31.4667839  47.4385294
  58.7217834  32.0326426  46.1654211  56.8301047  32.9487684  46.1711488
  55.6353754  33.1057464  46.8576076  55.3195141  32.3386331  47.5646215
  54.8417265  34.2305657  46.6503535  53.9052468  34.3438186  47.1965038
  55.2446289  35.2136626  45.7433386  54.6277068  36.0975083  45.5810923
  56.4253346  35.0628793  45.0535687  56.7469026  35.8225888  44.3411534
  57.2089520  33.9360209  45.2683868  58.1444787  33.8107556  44.7232278
  58.3924837  29.4973562  45.4152752  59.0866025  29.4224872  44.3917701
  58.5563283  28.6552558  46.4471976  58.0645940  28.7959871  47.3181118
  59.5005663  27.5409213  46.3557965  60.4969318  27.9318814  46.1496287
  59.5389419  26.7806642  47.6799315  58.5503359  26.3753812  47.8955790
  60.2582846  25.9647012  47.6102849  59.8356300  27.4585773  48.4802497
  59.1334642  26.5999437  45.2096406  59.9939641  26.2093431  44.4095899
  57.8517051  26.2373377  45.1101851  57.1697600  26.5830824  45.7701175
  57.4117217  25.2863194  44.0953665  57.9088684  24.3267655  44.2374955
  55.8984080  25.0752294  44.2087852  55.7279222  24.4984629  45.1178365
  55.4338609  26.0561734  44.3090097  55.2914774  24.3486652  43.0301620
  54.7514694  25.0497473  41.9618810  54.7696221  26.1394067  41.9821880
  54.1979218  24.3897380  40.8861447  53.7769921  24.9534640  40.0535986
  54.1788958  23.0046053  40.8647996  53.6334368  22.3347761  39.7886819
  53.2960566  22.9252805  39.1111284  54.7040787  22.2897821  41.9200269
  54.6893089  21.1999520  41.9076714  55.2499858  22.9599291  42.9948414
  55.6585074  22.3998084  43.8359567  57.7880892  25.7499288  42.6918442
  58.1961532  24.9426309  41.8532812  57.6534485  27.0451313  42.4120380
  57.3379747  27.7008990  43.1124266  57.8469245  27.5271144  41.0537054
  57.3966997  26.8904741  40.2920718  57.2275610  28.9342052  40.9483749
  56.3366240  28.9736762  41.5750906  58.2088054  29.9890059  41.4018746
  59.0998745  29.9504548  40.7752881  57.7489054  30.9737025  41.3184175
  58.4868053  29.8051871  42.4396744  56.7647664  29.1927673  39.5523743
  56.0147571  28.4521906  39.2746437  56.3293974  30.1902334  39.4922498
  57.6118514  29.1248787  38.8697771  59.3052518  27.4971131  40.6170106
  59.5912248  27.6643557  39.4209022  60.2348679  27.2584703  41.5445351
  59.9592927  27.1963098  42.5142225  61.6495379  27.1380633  41.2196474
  61.8832885  27.7559054  40.3526232  62.5261492  27.5947388  42.3998453
  63.5716112  27.5490374  42.0948520  62.1857630  29.0053965  42.8202760
  61.1405068  29.0517866  43.1258691  62.8213545  29.2995156  43.6555105
  62.3495010  29.6840714  41.9832033  62.3280233  26.7232162  43.5211305
  62.8772587  27.0135274  44.2530187  62.0596370  25.7243651  40.8247482
  63.2583628  25.4858412  40.6577038  61.1103317  24.7843518  40.6941599
  60.1687682  25.0118626  40.9801607  61.3911476  23.4051851  40.2394406
  60.4964981  22.7930018  40.3531636  61.8132808  23.3911473  38.7535619
  61.2319919  24.1561931  38.2388704  62.8702428  23.6554942  38.7211249
  61.6004357  22.0187241  38.0517004  60.8800711  21.1337542  38.5826544
  62.1671735  21.8440366  36.9439317  62.4508566  22.7248998  41.1200852
  63.2997376  21.9700091  40.6354244  62.4205020  23.0094091  42.4275690
  61.7072678  23.6383667  42.7678759  63.3656475  22.4565515  43.3843148
  62.8128280  22.3398838  44.3164513  63.6395291  21.4741918  42.9995324
  64.6361409  23.2543641  43.6574204  65.4046834  22.8579530  44.5440244
  64.9006654  24.3463037  42.9258217  64.2658060  24.6541535  42.2031313
  66.1452294  25.0902376  43.1185484  66.9496463  24.3571286  43.1782464
  66.4062465  26.0044580  41.9249404  65.6137970  26.7498156  41.8573700
  67.3656694  26.5055652  42.0533908  66.4259802  25.4119440  41.0102618
  66.1695905  25.9307441  44.3939955  67.2412528  26.4197639  44.7720401
  65.0293590  26.1417176  45.0479048  64.1844323  25.6798206  44.7431930
  64.9505271  27.0437591  46.1923762  65.9261929  27.0993994  46.6751592
  64.5342368  28.4531318  45.7676022  63.5521915  28.4402917  45.2948216
  64.5153010  29.1257162  46.6251404  65.6506361  29.1976113  44.5757844
  64.9886632  30.3456897  44.4635074  63.9444317  26.5019362  47.1853239
  62.7937988  26.2502883  46.8211436  64.3707446  26.3471944  48.4329553
  65.3437783  26.4954926  48.6594778  63.4738310  25.9193583  49.4935520
  62.6732040  25.3094839  49.0750441  64.2287208  25.0881383  50.5356805
  63.5250888  24.7554557  51.2987817  64.6678971  24.2201244  50.0439732
  65.2535526  25.8561222  51.1413979  65.7145788  25.3194158  51.7902438
  62.8179327  27.1257987  50.1639235  63.3390825  28.2481901  50.1211768
  61.6607754  26.8847914  50.7823378  61.1958649  25.9917462  50.7021637
  61.0386237  27.9131783  51.5927740  60.6341172  28.6886026  50.9422428
  60.2310110  27.4718301  52.1767883  62.0442638  28.5367746  52.5357568
  62.1790069  29.7623300  52.6017072  62.7861785  27.6869299  53.2473497
  62.6654074  26.6873776  53.1672940  63.7524593  28.1913335  54.2167884
  63.2505062  28.8484506  54.9269569  64.3974777  27.0414474  54.9876290
  64.3089190  26.1356911  54.3877440  65.4512439  27.2833034  55.1261303
  63.7438510  26.8155274  56.3499562  62.9528009  27.6969221  56.7940420
  64.0175289  25.7542592  56.9717529  64.8203558  29.0345473  53.5549603
  65.3149281  29.9913734  54.1594676  65.2059898  28.6991068  52.3257548
  64.8956093  27.8521977  51.8713231  66.1792344  29.5378874  51.6349031
  67.0240941  29.7467383  52.2911748  66.6971375  28.8209382  50.3826754
  65.8210323  28.5033676  49.8172659  67.2535819  29.5592045  49.8052392
  67.5957929  27.6048163  50.6605513  68.3368083  27.8786506  51.4115585
  66.9575832  26.8128566  51.0524535  68.3010496  27.1133965  49.4103495
  67.6021791  26.7626866  48.4375943  69.5518692  27.0928456  49.3872877
  65.5768679  30.8975282  51.2920949  66.2576448  31.9263272  51.3757944
  64.2932213  30.9274868  50.9378228  63.7692457  30.0773664  50.7866798
  63.6404101  32.2016367  50.6565747  64.2299915  32.8438485  50.0023141
  62.2615987  31.9488818  50.0202853  61.7312309  31.2148279  50.6268950
  61.4395596  33.2287439  49.9385448  61.9691072  33.9631669  49.3316652
  60.4728141  33.0118563  49.4841621  61.2877140  33.6283143  50.9412340
  62.4679186  31.3000307  48.6422300  62.9434832  32.0566124  48.0181119
  63.1583846  30.4709155  48.7969047  61.2099977  30.7904946  47.9518767
  60.5191984  31.6191887  47.7964349  61.4749444  30.3535374  46.9890834
  60.7340984  30.0334931  48.5752292  63.5541155  33.0523957  51.9248662
  63.9211860  34.2353461  51.9267873  63.0853592  32.4597870  53.0280346
  62.7456292  31.5087151  53.0159937  62.9812331  33.2153809  54.2708184
  62.2914475  34.0492544  54.1406257  62.4579984  32.3182899  55.3983919
  63.1365949  31.4653357  55.3897135  62.5062817  32.8104649  56.3697479
  61.0260398  31.8343025  55.1417115  61.0501665  31.1387422  54.3028345
  60.4247288  31.1466419  56.3503094  60.3998401  31.8417694  57.1895217
  59.4104052  30.8226166  56.1173807  61.0306944  30.2800763  56.6148282
  60.1256614  32.9729310  54.6594026  60.5223861  33.3818182  53.7301447
  59.1186474  32.5927176  54.4877588  60.0934390  33.7567860  55.4161272
  64.3189492  33.8347701  54.6378560  64.3785530  34.9865874  55.0743665
  65.4117188  33.0982530  54.4502656  65.3658154  32.1435334  54.1239183
  66.7235758  33.6664503  54.7452776  66.7463026  34.1085987  55.7413135
  67.8155569  32.6059338  54.6579507  67.8983009  32.2572158  53.6285579
  69.1623763  33.2048989  55.1067807  69.0805413  33.5534373  56.1363066
  69.9390178  32.4428095  55.0423860  69.4216843  34.0427717  54.4596106
  67.4564584  31.4872262  55.4679091  68.1435878  30.8190312  55.4134194
  67.0649076  34.7922720  53.7843764  67.6128269  35.8206940  54.1960130
  66.7778915  34.6066853  52.4939542  66.3513031  33.7581930  52.1501776
  67.1621334  35.6243884  51.5298762  68.1877713  35.9421824  51.7174213
  67.0740763  35.0753108  50.1102347  67.7787392  34.2462865  50.0449034
  66.0594115  34.7004708  49.9758831  67.3895072  36.1026142  49.0128004
  67.1370671  35.6268236  48.0651728  66.7230899  36.9481832  49.1831031
  69.0870166  36.6921905  48.9445382  69.9191096  35.1421264  48.6530390
  69.5586692  34.7051759  47.7217732  70.9931704  35.3135462  48.5815599
  69.7148177  34.4588514  49.4773578  66.3127100  36.8778646  51.6778439
  66.8114395  37.9884114  51.4671864  65.0380852  36.7445056  52.0465400
  64.5839236  35.8543885  52.1932646  64.2327474  37.9541341  52.1398831
  64.2948208  38.5105581  51.2046620  62.7690258  37.6074156  52.4053266
  62.2008319  38.5000302  52.1436127  62.5238548  36.8044796  51.7101396
  62.4179097  37.1821954  53.8069440  62.6960409  36.1350327  53.9260832
  62.9934534  37.7919560  54.5033927  60.9216019  37.3495214  54.0975552
  60.1961387  37.9705261  53.2659680  60.4764580  36.8584553  55.1584086
  64.8007983  38.8876926  53.1975488  64.8998233  40.1002971  52.9810112
  65.2434949  38.3277100  54.3243399  65.1052724  37.3426511  54.4994191
  65.8782647  39.1324469  55.3627810  65.2299856  39.9617249  55.6458560
  66.1341580  38.2679088  56.5989131  66.4834070  37.3302602  56.1665481
  66.9400191  38.7250678  57.1731025  64.9423969  37.9917506  57.5222225
  64.0448757  37.8989579  56.9107114  65.1480307  36.6913753  58.3370187
  66.0451727  36.7835971  58.9491708  64.2846583  36.5253412  58.9813181
  65.2592360  35.8484081  57.6550069  64.7179630  39.1896660  58.4355648
  64.5119892  40.0737332  57.8321583  63.8703617  38.9929288  59.0920461
  65.6106855  39.3608884  59.0370865  67.1751462  39.7641048  54.8677491
  67.4527479  40.9355368  55.1461167  68.0022309  39.0005768  54.1563190
  67.8211868  38.0207926  53.9909548  69.2387038  39.5750198  53.6303960
  69.8509971  39.9456834  54.4524694  70.0388333  38.5211631  52.8611327
  69.4082306  38.2037186  52.0306700  70.9212862  39.0297118  52.4728607
  70.4689998  37.3021362  53.6663129  71.2659105  37.5853301  54.3539432
  69.6181405  36.9239934  54.2330126  71.0712561  36.0037517  52.5606372
  72.2057350  36.9421694  51.5282405  72.9849173  37.3821475  52.1506496
  72.6605301  36.2795163  50.7919301  71.6604126  37.7344893  51.0154501
  68.9283626  40.7574537  52.7270382  69.5466401  41.8254977  52.8371887
  67.9563049  40.5850269  51.8266146  67.4967409  39.6924553  51.7160873
  67.5989531  41.6629538  50.9153647  68.4754330  42.0290335  50.3806987
  66.5439825  41.1879340  49.9041800  65.7304760  40.7011019  50.4420480
  65.9961656  42.3657059  49.1160113  66.8090712  42.8527977  48.5774700
  65.2502209  42.0118734  48.4043443  65.5356390  43.0785914  49.7999767
  67.1649718  40.1450147  48.9739254  67.8796793  40.6709033  48.3408890
  67.6954781  39.4328273  49.6059474  66.1614459  39.3979961  48.0967186
  65.6308423  40.1095255  47.4640374  66.6899400  38.6793463  47.4703514
  65.4466393  38.8714511  48.7290964  67.1281559  42.8670138  51.7078913
  67.6642972  43.9691161  51.5694284  66.1714206  42.6554639  52.6065293
  65.7845215  41.7370548  52.7706428  65.5765847  43.7897757  53.3010225
  65.2680703  44.5471714  52.5804187  64.3434677  43.3369197  54.0948771
  64.6493786  42.5521020  54.7866711  63.9651960  44.1899451  54.6582227
  63.2388238  42.8030945  53.1719787  63.0588489  43.5857595  52.4349947
  63.6584570  41.9276482  52.6763944  61.6698921  42.3495579  53.9537919
  62.1674722  40.9940745  54.9982649  62.9180814  41.3391567  55.7093226
  61.3010169  40.6154588  55.5404882  62.5880929  40.1973570  54.3847335
  66.6022185  44.4974388  54.1816031  66.6571380  45.7303830  54.2050259
  67.4457183  43.7475303  54.8888111  67.3549266  42.7434909  54.9501393
  68.4906024  44.3978901  55.6760871  68.0514971  45.1559739  56.3246197
  69.2098216  43.3679974  56.5462192  69.7025110  42.6524058  55.8879753
  69.9596212  43.8902059  57.1405246  68.2496986  42.6275255  57.4750567
  67.4315805  43.3077450  57.7118796  67.8606372  41.7685526  56.9283403
  68.9048389  42.1531776  58.7656171  69.4732162  42.9834222  59.1848307
  68.1174099  41.8643984  59.4617935  69.8271563  40.9781067  58.5329200
  69.2811658  40.1900905  58.0142435  70.6701211  41.2987883  57.9208147
  70.3303251  40.4578129  59.8390569  69.5493981  40.1602090  60.4062294
  70.9452341  39.6736160  59.6746731  70.8366484  41.1877256  60.3196432
  69.4635887  45.1441041  54.7699556  69.7842844  46.3110866  55.0175480
  69.9137599  44.5006128  53.6850160  69.6411226  43.5478426  53.4900875
  70.8720124  45.1473183  52.7840776  71.7499340  45.4274948  53.3661893
  71.3053056  44.1844546  51.6798913  70.4383725  43.9019100  51.0826513
  72.0426886  44.6710748  51.0414812  71.7444314  43.2924381  52.1266287
  70.3013539  46.4170526  52.1747054  71.0324616  47.3881323  51.9408686
  69.0077859  46.4220724  51.8876763  68.4480766  45.5876211  51.9902232
  68.3715126  47.6179802  51.3628165  69.0675163  48.1521853  50.7160531
  67.1292165  47.2524245  50.5479702  66.5688566  46.6019005  51.2194719
  66.5690121  48.1728157  50.3831945  67.3448276  46.5400229  49.2097898
  67.7414307  45.5407369  49.3893286  66.0099665  46.4331832  48.4676603
  65.6129426  47.4321607  48.2873415  66.1628850  45.9261201  47.5149779
  65.3023736  45.8650971  49.0715568  68.3741777  47.2624642  48.3517724
  69.3269679  47.2989304  48.8799396  68.5016605  46.7289066  47.4098777
  68.0319461  48.2775441  48.1503047  67.9832645  48.5999131  52.4541460
  67.3324492  49.6043741  52.1530756  68.3422583  48.3326684  53.7102753
  68.8238456  47.4716053  53.9264776  67.9706187  49.2145455  54.8143721
  68.2518867  48.7569363  55.7628348  68.6888033  50.5653609  54.6894379
  68.4008677  51.0125543  53.7380125  68.3511588  51.2025736  55.5067850
  70.2145917  50.4259949  54.7472907  70.4707296  49.8304150  55.6235206
  70.5451544  49.9078071  53.8471175  70.8989925  51.7691561  54.8344817
  71.0490481  52.1517979  53.8249434  70.2578179  52.4533548  55.3902394
  72.2500624  51.6506323  55.5402581  72.2445694  52.3754230  56.3543519
  72.3027007  50.6428079  55.9521056  73.4424880  51.8946491  54.6615188
  73.3941259  52.8286220  54.2801325  74.2875501  51.7966147  55.2059078
  73.4479996  51.2228751  53.9073382  66.4514233  49.3959613  54.9017995
  65.9605333  50.4494017  55.3076597  65.6891847  48.3633222  54.5343832
  66.1470668  47.5721230  54.1049102  64.2333846  48.3469637  54.6398751
  63.8468614  47.4080321  54.2435085  63.7954923  48.4784874  56.0991132
  64.1820761  49.4009546  56.5323643  62.7088841  48.4652774  56.1840139
  64.3055817  47.3578629  56.9519411  65.4694698  47.3319727  57.6742707
  66.0946385  48.2240183  57.6352995  65.5966023  46.1271847  58.3196366
  66.3689031  45.8536721  58.9102649  64.5051992  45.3518862  58.0268901
  64.1859250  44.0652110  58.4396949  64.8727481  43.5436501  59.1062885
  63.0152258  43.5302038  57.9764750  62.7262311  42.5234791  58.2782817
  62.1747726  44.2489378  57.1192108  61.2462964  43.8110958  56.7527057
  62.4908856  45.5220107  56.7142791  61.8025976  46.0344316  56.0421294
  63.6742523  46.0958854  57.1690816  63.5858628  49.4220299  53.7916026
  62.4442163  49.8244494  54.0458777  64.3181375  49.9001669  52.7948640
  65.2591155  49.5463004  52.6977135  63.8602854  50.9166833  51.8524942
  63.1758637  51.6053584  52.3478655  65.0463321  51.7058171  51.3263011
  65.9261052  51.2641063  51.7942649  65.0734166  51.5179339  50.2529575
  65.0379320  53.1857154  51.5746621  64.0286445  53.5472464  51.7714741
  65.6870835  53.4495720  52.4095778  65.5727972  53.8344650  50.2838457
  65.8312188  53.0326188  49.5922100  64.7699822  54.4362912  49.8579433
  66.7439427  54.6840434  50.4732596  67.6524097  54.2460297  50.5273983
  66.6709107  56.0061429  50.5741920  65.4780368  56.5961122  50.5005375
  64.6480777  56.0356270  50.3696776  65.4095229  57.6009620  50.5759189
  67.7775639  56.7333425  50.7507149  68.6756795  56.2748349  50.8078036
  67.7110579  57.7383131  50.8262785  63.1357517  50.1780637  50.7371575
  63.7117623  49.8321731  49.7059231  61.8596172  49.9033073  50.9519007
  61.3859487  50.2970242  51.7523534  61.1255837  48.9852828  50.1010911
  61.7245659  48.7214778  49.2294683  60.8006949  47.7097404  50.8738134
  60.0335770  47.9817408  51.5988273  60.3991595  46.9703185  50.1809031
  62.0057325  47.1204509  51.6048540  62.6473191  47.9267182  51.9603824
  61.5299745  46.3100361  52.7714299  60.8886573  45.5032367  52.4166259
  62.3876516  45.8880697  53.2952955  60.9669428  46.9482776  53.4524171
  62.8273161  46.2604403  50.6546670  63.1783701  46.8709396  49.8227108
  63.6833725  45.8459472  51.1870805  62.2093043  45.4477824  50.2728981
  59.8653449  49.6348206  49.5637487  58.8928193  48.9492023  49.2524119
  59.8765429  50.9638126  49.4512993  60.7184857  51.4731085  49.6790041
  58.6898792  51.7256103  49.0548873  57.9015961  51.0454410  48.7322751
  58.1740738  52.5457619  50.2324836  58.8946585  53.3352064  50.4461058
  57.2199107  52.9917137  49.9517706  57.9985553  51.7434986  51.3845756
  57.6740440  52.2868263  52.1064394  58.9957505  52.6372176  47.8729957
  58.7654803  53.8439803  47.9339333  59.5310148  52.0985941  46.7815055
  59.7668346  50.6766692  46.4681725  58.8367894  50.1218475  46.5918221
  60.5200159  50.2784132  47.1480321  60.2457861  50.7020662  45.0198912
  59.4086817  50.5174073  44.3466480  61.0098870  49.9400697  44.8662277
  60.8147985  52.0800392  44.8234299  60.7316414  52.3308275  43.7659379
  61.8394093  52.2460049  45.1561876  59.8546314  52.9454557  45.6398020
  60.2920731  53.8768196  45.9993912  58.6055646  53.2507904  44.8412404
  57.6081459  52.5338207  44.8904787  58.6705756  54.3451426  44.1083885
  59.3259238  55.0828863  44.3236842  57.7632915  54.5355005  42.9941293
  56.7618042  54.2043891  43.2688796  57.7012439  56.0120757  42.6124008
  58.6544656  56.2341253  42.1326490  56.8895206  56.1937475  41.9079857
  57.5253293  56.9100138  43.8329913  58.3287171  56.7089459  44.5416807
  57.5660679  58.3615404  43.4260125  56.7626303  58.5634928  42.7176326
  57.4392500  58.9902306  44.3073561  58.5258112  58.5815345  42.9584701
  56.2312895  56.5668144  44.5282821  56.2539079  55.5241322  44.8451442
  56.1055715  57.2084091  45.4004360  55.3980596  56.7195723  43.8423580
  58.2863605  53.6644536  41.8572629  59.3693783  53.9192632  41.3195506
  57.5555110  52.6144729  41.5086878  56.6935149  52.3781618  41.9790272
  58.0093755  51.7552282  40.4330134  59.0569532  51.4947656  40.5841406
  57.1908591  50.4726634  40.3881554  57.5851046  49.8275672  39.6029665
  57.2629213  49.7534604  41.7131687  56.8683913  50.3978022  42.4988335
  56.6721611  48.8387943  41.6632937  58.3003283  49.5036604  41.9356260
  55.8248146  50.8011658  40.0990921  55.3017208  49.9967568  40.0691021
  57.8935637  52.4685837  39.0884608  57.2882666  53.5367236  38.9574701
  58.4736838  51.8410946  38.0689904  59.0936945  51.0584159  38.2209777
  58.2990321  52.3296449  36.7076905  58.6154591  53.3693759  36.6244284
  59.1219900  51.4638384  35.7366105  58.9739105  50.4154771  35.9956692
  58.6997146  51.6928838  34.3028348  58.8479493  52.7410021  34.0428825
  59.2997539  51.0669021  33.6423800  57.6466123  51.4360901  34.1882409
  60.5970994  51.7966821  35.9152423  60.7635509  52.7816593  35.4791063
  60.7943409  51.8361995  36.9865189  61.5011943  50.8240148  35.2867109
  61.3048496  50.7842782  34.2152775  62.5348002  51.1262934  35.4551918
  61.3356377  49.8388173  35.7226889  56.8222038  52.3594123  36.3437314
  56.3275641  53.3259499  35.7533031  56.0842477  51.3126507  36.7002522
  56.4478838  50.5207060  37.2108319  54.7059159  51.2691454  36.2555989
  54.5772439  51.6965564  35.2611832  54.1777076  49.8294647  36.2423124
  54.9011341  49.1880639  35.7389651  53.9651104  49.3336897  37.6682109
  53.2414066  49.9743651  38.1720847  53.5900017  48.3105179  37.6455518
  54.9117061  49.3612156  38.2079334  52.8981669  49.7655171  35.4222348
  53.1041840  50.0858044  34.4009243  52.5227864  48.7422377  35.4128281
  52.1493421  50.4226247  35.8644699  53.8174179  52.1576472  37.1060828
  52.7464100  52.5686570  36.6393174  54.2262628  52.4861089  38.3320496
  55.0472993  52.0835246  38.7609136  53.4232219  53.4168491  39.1155559
  52.3935153  53.0636926  39.1710898  53.9778723  53.5285121  40.5336896
  53.2196175  53.9738487  41.1777582  54.2237125  52.5312759  40.8986316
  55.1448202  54.3381947  40.5469425  55.4817834  54.3992012  41.4437891
  53.3722610  54.7869986  38.4500040  52.3454766  55.4734598  38.5045743
  54.4669912  55.2002650  37.8145407  55.3314921  54.6811616  37.8717183
  54.4567270  56.4465631  37.0529649  54.1016684  57.2625093  37.6824603
  55.8639088  56.7829089  36.5660318  56.3327808  55.8939527  36.1441135
  55.8287263  57.5678037  35.8105172  56.7486924  57.2597974  37.6219814
  57.7675301  56.5741019  38.2156011  57.9496461  55.5563878  37.8703599
  58.3683040  57.3623648  39.1669682  59.1519495  57.0945588  39.7451370
  57.7330372  58.5761285  39.2000887  57.9780184  59.6982330  39.9885345
  58.7941077  59.6632317  40.7102491  57.1692416  60.7819511  39.8028870
  57.3247278  61.6752588  40.4078048  56.1390715  60.7763154  38.8502650
  55.5035331  61.6507430  38.7103833  55.8993866  59.6708583  38.0653990
  55.0946731  59.7201266  37.3318394  56.7046930  58.5407032  38.2377586
  53.5089616  56.3551253  35.8698619  52.7116141  57.2636973  35.6300743
  53.6186115  55.2823350  35.0872344  54.3379613  54.5915642  35.2468306
  52.7113514  55.0880404  33.9635687  52.8883536  55.8549618  33.2095123
  52.9325812  53.7203626  33.3284789  53.9170204  53.7681582  32.8629744
  52.9255264  52.9330570  34.0822695  51.8843022  53.4160256  32.2676090
  50.9009111  53.2968697  32.7224106  51.8594540  54.5962445  31.3091707
  52.8424440  54.7157527  30.8535973  51.1180471  54.4170736  30.5305088
  51.6000339  55.5031348  31.8553866  52.1704993  52.0885146  31.5487823
  52.1701035  51.2746678  32.2738702  51.4000991  51.9071027  30.7993328
  53.1446106  52.1407062  31.0624880  51.2783635  55.1967254  34.4220304
  50.4394446  55.8199485  33.7622335  50.9752528  54.5775459  35.5534215
  51.6652499  54.0637521  36.0825900  49.6074394  54.5772116  36.0268856
  48.9294736  54.2774381  35.2277628  49.4726956  53.5953982  37.1683858
  49.6707947  52.5767023  36.8350470  50.2026709  53.8772638  37.9271927
  48.1184245  53.6415553  37.7729535  47.9111165  54.2873165  38.8084326
  47.1511444  52.9938551  37.1104676  46.2089796  52.9906957  37.4743568
  47.3683350  52.5115655  36.2500457  49.1742948  55.9708822  36.4565527
  48.0590400  56.4066208  36.1609385  50.0417536  56.6887002  37.1532324
  50.9003372  56.2938484  37.5096389  49.7137252  58.0593967  37.5090768
  48.7458422  58.1269855  38.0057995  50.7901077  58.6328344  38.4488022
  51.7560706  58.2087837  38.1745835  50.8532674  60.1307788  38.3447848
  49.8877328  60.5556028  38.6193179  51.6214079  60.5102329  39.0186358
  51.0965338  60.4144688  37.3208497  50.4821366  58.2080530  39.8784075
  50.4820164  57.1199470  39.9426521  51.2409318  58.6110227  40.5491868
  49.5027093  58.5887106  40.1681019  49.5305148  58.9018429  36.2541794
  48.5848030  59.6923971  36.1555933  50.4212037  58.7370322  35.2678855
  51.1999263  58.0999513  35.3563080  50.3130586  59.5338527  34.0476222
  50.3645883  60.5937933  34.2965597  51.4488678  59.2036913  33.0807246
  51.4041382  58.1293443  32.9021829  51.2486714  59.7347757  32.1501491
  52.8184103  59.5716325  33.5830766  52.9783569  60.5113211  34.6009010
  52.0939155  60.9762838  35.0364150  54.2234526  60.8519964  35.0538106
  54.3538071  61.5899204  35.8453773  55.3337106  60.2464504  34.4790540
  56.5970779  60.5484649  34.9042600  56.6096803  61.1972584  35.6117258
  55.1995305  59.3167107  33.4709816  56.0764902  58.8473171  33.0252105
  53.9530783  58.9860752  33.0323325  53.8325346  58.2510653  32.2365123
  48.9682588  59.3087102  33.3745120  48.3636883  60.2508313  32.8485279
  48.4695878  58.0690747  33.4071327  48.9709652  57.3186515  33.8605477
  47.2186477  57.7526274  32.7256080  47.2181052  58.1947378  31.7292961
  47.0540873  56.2397901  32.5885380  47.2123168  55.8018584  33.5740726
  46.0303008  56.0488775  32.2668028  48.0223391  55.6152076  31.5950369
  49.0283229  55.8486924  31.9437233  47.8655686  54.5372786  31.6349631
  47.8391977  56.1800392  29.8856881  46.4321967  55.2056519  29.3445413
  45.5695166  55.4333454  29.9706704  46.2008231  55.4458113  28.3068080
  46.6706320  54.1452560  29.4270660  46.0239370  58.3558728  33.4510977
  45.0730847  58.8228639  32.8090905  46.0498712  58.3520588  34.7889493
  46.7504838  57.8372611  35.3029771  45.0203407  59.0609445  35.5425214
  44.0422462  58.6339506  35.3209212  45.2738169  58.9439889  37.0338447
  46.3307760  59.1533077  37.1985336  44.6717653  59.7090312  37.5240938
  44.9376323  57.6070761  37.6027752  43.8550590  57.5190582  37.6943651
  45.3114925  56.8201720  36.9477083  45.5551031  57.4294485  38.9734796
  46.0515607  58.3970836  39.5651568  45.5396272  56.1928712  39.4868519
  45.9394354  56.0228834  40.3986408  45.1282146  55.4357568  38.9599563
  44.9613668  60.5234577  35.1423048  43.8812700  61.0590384  34.8885054
  46.1171942  61.1915350  35.0941714  46.9747954  60.7646468  35.4141493
  46.1585839  62.5856821  34.6550031  45.5627886  63.2471881  35.2839203
  47.6104405  63.0941278  34.6436316  48.2122866  62.4445691  34.0080577
  47.6623099  64.5146828  34.1086102  47.0610263  65.1649638  34.7439792
  48.6945994  64.8646332  34.1049305  47.2685784  64.5353599  33.0924165
  48.2151652  62.9984006  36.0291633  48.2060445  61.9595946  36.3591646
  49.2424187  63.3619977  36.0037248  47.6327950  63.6046271  36.7230187
  45.5032324  62.7467192  33.2856435  44.7778736  63.7180840  33.0345121
  45.7626985  61.8086006  32.3702131  46.4251910  61.0677811  32.5501840
  45.1366383  61.8714861  31.0552804  45.3915705  62.8206693  30.5839418
  45.6554541  60.7339110  30.1750043  45.3997745  59.7766641  30.6293241
  45.1985203  60.8004777  29.1876438  46.7384257  60.8125279  30.0796571
  43.6177116  61.8153850  31.1677406  42.9119137  62.6228296  30.5518441
  43.1071571  60.8832067  31.9757236  43.7630499  60.2961011  32.4709115
  41.6834229  60.5695074  32.0764985  41.1792414  60.6797338  31.1164202
  41.5816438  59.0918929  32.5213519  41.5191785  58.4971476  31.6100477
  42.5643770  58.9599696  32.9740458  40.4981791  58.6319169  33.5076604
  39.5733842  57.6432094  33.1395723  39.6268953  57.2279308  32.1332027
  38.5987685  57.1895974  34.0313377  37.8711165  56.4410992  33.7176902
  38.5571742  57.7014316  35.3251799  37.5991008  57.2575384  36.2257714
  37.0127101  56.5949133  35.8533824  39.4827330  58.6620386  35.7250450
  39.4511313  59.0643590  36.7375865  40.4544878  59.1105935  34.8241560
  41.1947662  59.8448340  35.1419279  40.9000319  61.5551727  32.9638032
  39.6928902  61.7132389  32.7637758  41.5416883  62.2479724  33.9128483
  42.4741935  61.9959398  34.2078281  40.8828538  63.3756755  34.5791191
  39.8388754  63.1224918  34.7637979  41.5545901  63.7141785  35.9278593
  42.5849107  63.7564718  35.5746596  41.2075818  64.7219784  36.1559486
  41.4827507  62.8429781  37.2046842  41.9843877  61.8926426  37.0221370
  42.1721303  63.5701659  38.3696042  41.6707244  64.5204476  38.5530593
  42.1189700  62.9528330  39.2663621  43.2164159  63.7537947  38.1169213
  40.0641449  62.4158158  37.6087508  39.6164255  61.8331277  36.8036909
  40.1105408  61.8092515  38.5132000  39.4571047  63.3014358  37.7965765
  40.8841304  64.6324039  33.7150884  40.0973616  65.5524710  33.9805373
  41.7367636  64.6773233  32.6885948  42.2356009  63.8328903  32.4473615
  42.0409573  65.9005566  31.9428069  42.7828614  65.6812196  31.1749732
  40.7799437  66.4700210  31.2613511  39.9207307  66.2444168  31.8929800
  40.8860674  67.5506056  31.1655664  40.5344426  65.8778532  29.8722159
  40.6389854  64.6624752  29.6792314  40.2163908  66.7417535  28.8969496
  40.0444004  66.4017207  27.9615904  40.1503053  67.7284508  29.1022830
  42.6831804  66.9565207  32.8639906  42.2569806  67.1714527  34.0099487
  41.8673203  58.4660582  20.0515333  42.8169016  59.5332564  19.6768436
  42.5232665  60.4663921  20.1576101  42.8081527  59.6641989  18.5947731
  44.1563139  59.0054129  20.1889850  44.6857257  59.8013498  20.7127280
  44.7583700  58.6615308  19.3479292  43.8139623  57.8301735  21.1420857
  43.5651507  58.1511153  22.1536133  44.6015958  57.0778355  21.1835665
  42.5778496  57.2520028  20.4632087  42.8396954  56.7187955  19.5493022
  41.7904153  56.3206990  21.3887623  41.7641352  55.1162679  21.1258383
  41.1623082  56.8685084  22.4352212  41.3648119  57.8345881  22.6491873
  40.2488755  56.1358705  23.3214016  40.0302802  56.7378009  24.2034418
  38.9341368  55.8254225  22.6032879  39.1340566  55.0233275  21.8928128
  38.2279520  55.4754957  23.3562516  38.3444409  57.0113061  21.8717615
  39.1216023  57.7665994  21.7549159  38.0015985  56.6884080  20.8887570
  37.1791022  57.6277096  22.6113279  36.0410233  57.6213055  22.1194412
  37.4529756  58.1737618  23.7994522  36.7129276  58.6003505  24.3383887
  38.3988197  58.1574921  24.1533103  40.8305910  54.8327385  23.8688760
  41.9588723  54.4563124  23.5350036  40.0504960  54.1407997  24.7179799
  39.1494675  54.5554441  24.9085497  40.4127797  52.9073930  25.4264794
  39.6012028  52.6049735  26.0882833  40.6696492  51.7831666  24.4233214
  41.2153922  52.2269285  23.5906515  41.2955905  51.0351039  24.9098394
  39.4122222  51.1280357  23.9078850  38.1631543  51.4605324  24.4289305
  38.1006336  52.2108491  25.2171028  37.0140911  50.8537408  23.9602445
  36.0385730  51.1199813  24.3671626  37.1110588  49.8955345  22.9579476
  35.9861253  49.2772512  22.4709669  35.1789352  49.5806926  22.8928284
  38.3403152  49.5447501  22.4325354  38.4162408  48.7898612  21.6499253
  39.4768585  50.1602033  22.9082377  40.4522446  49.8926843  22.5018442
  41.6273833  53.0595384  26.3531746  42.7445027  52.6752888  25.9682806
  41.4553138  53.5867003  27.5844046  40.2828571  54.2750588  28.1426265
  39.5817248  53.5458086  28.5484687  39.7896630  54.8591077  27.3656159
  40.8990630  55.1439634  29.2118231  40.1609007  55.3769810  29.9792332
  41.2728777  56.0699519  28.7748917  41.9924114  54.3441847  29.7502868
  41.6189973  53.5866763  30.4393746  42.7477400  54.9496501  30.2512758
  42.5988182  53.6695552  28.5119561  43.3550010  54.2982306  28.0417933
  43.2044668  52.3201199  28.8530106  44.4374252  52.1997326  28.9214674
  42.3794587  51.2941360  29.0780009  41.3748414  51.3969052  29.0947905
  42.9464292  49.9872717  29.3931186  43.5738872  50.0585447  30.2815531
  41.8345994  48.9830006  29.6621409  41.0062776  49.2114635  28.9914794
  42.2192711  47.9881149  29.4377972  41.3519903  49.0243380  31.0870738
  42.2134472  49.0364723  31.7547906  40.7663944  49.9318866  31.2338222
  40.4917165  47.8347096  31.4319134  39.7654018  47.3266856  30.5740325
  40.5654232  47.3732907  32.6937548  40.0074390  46.5783455  32.9709141
  41.1783986  47.8239855  33.3580114  43.8695884  49.4959779  28.2800316
  44.9717315  48.9984009  28.5499144  43.4483762  49.6447360  27.0219512
  42.5477659  50.0531535  26.8165358  44.2393864  49.1228945  25.9142936
  44.5491786  48.0972495  26.1147437  43.3831565  49.1365308  24.6409593
  42.4174453  48.7208666  24.9285781  43.2617725  50.1869788  24.3765262
  43.9354028  48.3610784  23.4261738  43.4161006  48.7356475  22.5440604
  45.0019220  48.5662541  23.3337520  43.7332143  46.8405936  23.5060477
  44.6859080  46.0686543  23.3468301  42.4940350  46.4103011  23.7293235
  42.3102283  45.4190355  23.7902252  41.7429446  47.0769326  23.8368739
  45.5523952  49.8976041  25.7436305  46.6092116  49.2950692  25.5180384
  45.5253164  51.2267566  25.8666888  44.6707539  51.7495486  25.9951831
  46.7780850  51.9700541  25.7175291  47.3591097  51.5700008  24.8865858
  46.5176769  53.4709901  25.4860992  46.3342139  53.6409561  24.4251782
  45.3237508  53.9226586  26.2792485  45.5066660  53.7534253  27.3403813
  45.1522429  54.9849741  26.1055484  44.4451685  53.3576329  25.9678995
  47.7572637  54.2899741  25.8696156  47.9404502  54.1107527  26.9290604
  48.5898583  53.8972741  25.2859440  47.6266512  55.7889308  25.6232455
  46.7944927  56.1824568  26.2069831  48.5480511  56.2884968  25.9225033
  47.4438984  55.9689780  24.5638663  47.6940817  51.7600043  26.9205312
  48.9236962  51.8663852  26.7952900  47.1330025  51.4877045  28.1046174
  46.1369862  51.5574664  28.2568805  47.9840208  51.1517065  29.2399743
  48.7185257  51.9421028  29.3944910  47.1545845  51.0013892  30.5119453
  46.5074794  51.8679479  30.6477030  46.5460112  50.0985281  30.4611464
  47.9873571  50.8884335  31.7552894  48.4000141  49.6572641  32.2238170
  48.1135235  48.7540977  31.6850095  49.1735257  49.5642987  33.3710856
  49.4976588  48.5870042  33.7287639  49.5335227  50.7067771  34.0605502
  50.1402765  50.6353579  34.9632401  49.1240371  51.9343706  33.6045188
  49.4005695  52.8392956  34.1455741  48.3594913  52.0220119  32.4567324
  48.0385625  52.9965365  32.0887561  48.7795536  49.8815378  28.9504609
  50.0129183  49.8826201  29.0149224  48.0830025  48.7960331  28.5973405
  47.0776823  48.8453771  28.6809814  48.6821994  47.5322838  28.1659118
  49.1221636  47.0130398  29.0173319  47.6169012  46.6254399  27.5031999
  46.8580815  47.2708922  27.0608377  48.2005732  45.7182001  26.4282232
  48.9591955  45.0720826  26.8699527  47.4075759  45.1057775  25.9990443
  48.6532918  46.3264827  25.6451923  46.9582883  45.7784758  28.5619183
  45.9066587  46.0557618  28.6346400  47.0380241  44.7293163  28.2773025
  47.6186923  45.9863889  29.8810467  47.5389527  47.0353027  30.1665661
  47.1306787  45.3673422  30.6338569  48.6703192  45.7088592  29.8092278
  49.8453782  47.7721153  27.2177742  50.9127578  47.1737036  27.3643937
  49.6445012  48.6341307  26.2301575  48.8030489  49.1877474  26.1555526
  50.6142007  48.7045911  25.1488540  50.9931973  47.7110298  24.9094868
  49.9319213  49.2810625  23.9045673  49.6737119  50.3221256  24.0985127
  50.6293833  49.2299397  23.0684852  48.6443398  48.4851195  23.5539084
  48.9324702  47.4417485  23.4256166  47.9658615  48.5724388  24.4025217
  47.9115894  48.9492251  22.2917164  48.1553649  50.0521650  21.7597886
  46.9971297  48.0949841  21.8034370  46.4765871  48.3377906  20.9726651
  46.8342551  47.2137627  22.2692932  51.8533708  49.4860114  25.5598985
  52.9674378  49.0957562  25.1993482  51.6920115  50.5584069  26.3415315
  50.7717638  50.9245843  26.5394144  52.8509610  51.2719791  26.8741954
  53.5906050  51.4782584  26.1005838  52.4250361  52.5924995  27.5417362
  51.7784414  52.3721759  28.3911320  53.6483119  53.3530760  28.0212709
  54.2952056  53.5741789  27.1723052  53.3358108  54.2853184  28.4917683
  54.1934468  52.7465794  28.7445199  51.5773572  53.4451873  26.5957187
  52.2476647  53.8586493  25.8421685  50.8579675  52.7812860  26.1163308
  50.8420227  54.5694248  27.2862535  51.5608293  55.2340480  27.7655165
  50.2627057  55.1299879  26.5525915  50.1711333  54.1566843  28.0396808
  53.5987639  50.3830311  27.8522283  54.8247430  50.2446670  27.7819115
  52.8659117  49.7611991  28.7791855  51.8772372  49.9440814  28.8749786
  53.4909046  48.8330620  29.7138717  54.1734251  49.3867267  30.3586356
  52.4304188  48.1642732  30.5857808  51.7447358  47.5984579  29.9550734
  52.9132330  47.4898237  31.2929644  51.8752823  48.9265064  31.1325195
  54.2998785  47.7756194  28.9859112  55.4155110  47.4485754  29.3987191
  53.7379386  47.2095826  27.9110270  52.7788474  47.4190476  27.6736080
  54.4584141  46.2382287  27.0907584  54.6799080  45.3430458  27.6718670
  53.5954839  45.8419711  25.8931682  52.5807843  45.7529131  26.2811794
  53.6477240  46.6848577  25.2040287  53.9724094  44.5603102  25.1576347
  55.0187757  44.6397628  24.8628368  53.8508940  43.7201775  25.8413820
  53.0977904  44.3324356  23.8996412  52.7700864  45.3168303  23.1752890
  52.7311927  43.1649467  23.6407459  55.7946911  46.7952757  26.6332790
  56.7887007  46.0664552  26.5993122  55.8448211  48.0884101  26.3006285
  55.0047945  48.6460432  26.2414687  57.1176525  48.7137512  25.9484940
  57.6450066  48.1044142  25.2145286  56.8661433  50.0958020  25.3458052
  56.3226270  49.8755154  24.4270218  56.2195942  50.6506454  26.0256751
  58.0987294  50.9341722  25.0187499  58.6185167  51.1713118  25.9470208
  59.0374895  50.1785534  24.0913452  58.5185166  49.9414533  23.1626098
  59.9083521  50.7965488  23.8727571  59.3594685  49.2552518  24.5729510
  57.6874811  52.2559443  24.4078209  57.0617289  52.8035146  25.1125907
  58.5766630  52.8436204  24.1795808  57.1273742  52.0742309  23.4905644
  58.0421299  48.8126889  27.1630202  59.2307218  48.4792251  27.0859744
  57.5130336  49.2664396  28.2973189  56.5646444  49.6113077  28.3388312
  58.3305438  49.3497983  29.4981221  59.2293948  49.9346362  29.3028512
  57.5362887  50.0319547  30.6123063  56.6007651  49.4729262  30.6318484
  58.0596985  49.8965438  31.5587767  57.2379392  51.5171693  30.4031315
  56.9559777  51.6702050  29.3614124  56.1104323  51.9901869  31.3079710
  56.3918688  51.8378881  32.3499391  55.9242301  53.0499182  31.1336179
  55.2060929  51.4221931  31.0896739  58.5050343  52.3331726  30.6234872
  59.2699697  52.0159259  29.9147363  58.2875089  53.3906442  30.4733612
  58.8656834  52.1777328  31.6402810  58.8192309  47.9717077  29.9239580
  59.9818824  47.8182451  30.3047240  57.9504585  46.9582136  29.8614581
  56.9842204  47.1208551  29.6164459  58.3635882  45.5943120  30.1811302
  58.6357463  45.5287421  31.2345673  57.2239111  44.6099411  29.9082674
  56.8493774  44.8029400  28.9029937  57.6521316  43.6084430  29.9498448
  56.0697836  44.7139084  30.9119160  56.2166327  45.3703700  31.9750940
  54.9968819  44.1300420  30.6108361  59.5877700  45.1898231  29.3707564
  60.5111634  44.5614630  29.8987328  59.6096965  45.5317049  28.0758066
  58.8166926  45.9814991  27.6411466  60.7620003  45.2023472  27.2413940
  61.0200105  44.1504377  27.3639351  60.4415076  45.4583941  25.7686285
  59.5853983  44.8073539  25.5916458  60.1457700  46.4963004  25.6156909
  61.5677274  45.0986441  24.7912162  62.5096582  45.4464245  25.2153812
  61.6493299  43.5915544  24.5353026  60.7078582  43.2430989  24.1106749
  62.4607451  43.3843784  23.8376033  61.8375716  43.0725696  25.4751538
  61.4426459  45.8664540  23.4736413  61.4898422  46.9374463  23.6707387
  62.2587699  45.5835878  22.8087883  60.4900934  45.6260754  23.0014539
  61.9893205  45.9979174  27.6686977  63.0640246  45.4270993  27.8920957
  61.8390695  47.3216725  27.8041047  60.9507499  47.7595924  27.6060800
  62.9529760  48.1705538  28.2107862  63.7315424  48.1554654  27.4480897
  62.4766438  49.6060289  28.3917743  61.6088675  49.6487399  29.0499835
  63.2711522  50.2321310  28.7977948  61.9848920  50.3586488  26.8914642
  61.6545244  51.5309508  27.4257519  63.5926225  47.7022365  29.5051638
  64.8127069  47.7934687  29.6622516  62.7879300  47.2479075  30.4689958
  61.7877383  47.1684180  30.3532488  63.3550817  46.9620564  31.7760475
  64.0047636  47.7571262  32.1419387  62.2266304  46.7352141  32.8037543
  61.4164284  47.4335532  32.5940058  61.7049281  45.3246568  32.7292101
  62.5145128  44.6257083  32.9393162  60.9106275  45.1912046  33.4636334
  61.3114610  45.1345390  31.7306409  62.7019935  47.0650148  34.2156043
  63.0119268  48.1090551  34.2605856  61.8888440  46.8971910  34.9218073
  63.5452869  46.4247379  34.4744528  64.3246330  45.7863594  31.7090777
  65.1776698  45.6414173  32.5932224  64.2433109  44.9594800  30.6629290
  63.5343608  45.0917228  29.9558215  65.1345957  43.8063702  30.5438614
  65.2076246  43.2932843  31.5027717  64.5941102  42.8227791  29.5026544
  64.5977071  43.4039582  28.5805280  65.2872859  41.9869889  29.4074583
  63.1801113  42.2869426  29.7636207  62.4889193  43.1293476  29.7370083
  62.7549321  41.2472489  28.7291929  63.4454328  40.4042698  28.7555351
  61.7476413  40.8984017  28.9567265  62.7677943  41.6958759  27.7358809
  63.0643398  41.7034643  31.1722598  63.2842648  42.4785907  31.9063656
  62.0520590  41.3312325  31.3298422  63.7740519  40.8840502  31.2861379
  66.5648395  44.1953756  30.1812992  67.4679140  43.3545204  30.2905561
  66.7902440  45.4330271  29.7557212  65.9956883  46.0395066  29.6109346
  68.1183540  45.9500759  29.4521978  68.8230493  45.1254098  29.3452886
  68.0903508  46.7429835  28.1418958  67.6703573  46.0882709  27.3783147
  67.4350088  47.6024080  28.2833751  69.4730601  47.2241617  27.6964562
  70.3552290  47.4887555  28.5493168  69.6646550  47.3445902  26.4618480
  68.5626492  46.8287096  30.6235024  67.9613729  47.8731240  30.8871430
  69.6268277  46.4158573  31.3153810  70.1056992  45.5647036  31.0578563
  70.0661647  47.1195036  32.5082912  69.2889421  47.2143209  33.2666011
  71.2649572  46.3684024  33.1225116  71.0368610  45.3032701  33.1620665
  72.5011944  46.5869014  32.2856098  72.7302036  47.6518353  32.2459689
  73.3404701  46.0515904  32.7296357  72.3272826  46.2153553  31.2757534
  71.4850141  46.8051936  34.5639891  70.5924917  46.5872464  35.1505083
  72.3346686  46.2653870  34.9820749  71.6856802  47.8761693  34.5930560
  70.3993177  48.5840833  32.2272981  70.4401994  49.4011773  33.1527911
  70.6235621  48.9528199  30.9631914  70.6429281  48.2860551  30.2048056
  70.9261222  50.3503196  30.6645249  71.7746543  50.6864099  31.2604576
  71.2792150  50.4987394  29.1845580  70.5620843  49.9136811  28.6087719
  71.1828250  51.5520393  28.9211791  72.6887442  50.0248440  28.8691348
  73.6206905  50.2974765  29.6766128  72.8540187  49.3773169  27.8057262
  69.7786317  51.2819522  31.0366704  70.0038528  52.4779972  31.2615921
  68.5558915  50.7579558  31.1291703  68.3754444  49.7913648  30.8984322
  67.4279298  51.6018244  31.4981337  67.3029591  52.3961925  30.7622934
  66.1356832  50.7729665  31.5499234  65.2767999  51.4439954  31.5617118
  66.0829038  50.1315204  30.6702295  65.9367128  49.6679331  32.9968802
  64.7511573  49.1826939  32.6392501  67.6667032  52.3078920  32.8298618
  67.1111190  53.3924053  33.0668133  68.4953972  51.7308035  33.7053554
  68.9546770  50.8505868  33.5199367  68.6768599  52.3419488  35.0149423
  67.7096282  52.5235781  35.4835283  69.4819592  51.4083045  35.9073869
  70.4045195  51.1761643  35.3753223  69.7218115  51.8720518  36.8642095
  68.6944782  50.1183776  36.1491953  68.4975883  49.6671522  35.1767084
  69.4308894  49.1156559  37.0357035  69.6277331  49.5660342  38.0085914
  68.8161796  48.2249925  37.1659003  70.3749516  48.8394575  36.5660638
  67.3361506  50.4572062  36.7700417  66.7768829  51.1019449  36.0920807
  66.7754420  49.5384734  36.9421962  67.4879644  50.9727046  37.7183629
  69.3256476  53.7133803  34.9325646  69.3304114  54.4437561  35.9273141
  69.8557655  54.0820312  33.7705433  69.9545203  53.4176449  33.0162637
  70.3423406  55.4357572  33.5643771  71.1678507  55.6542372  34.2417979
  70.8401574  55.5659059  32.1343216  71.3224956  54.6213968  31.8826238
  69.9595808  55.7022119  31.5065434  71.7988552  56.6936745  31.9010890
  71.2837411  57.6437657  32.0428108  72.6027527  56.6042951  32.6317457
  72.3771724  56.6381855  30.5079160  72.3210075  55.5497665  29.8885343
  72.8665370  57.6785090  30.0267442  69.2623735  56.4715063  33.8362663
  69.5586730  57.5749027  34.3016835  68.0197246  56.1374238  33.5722788
  67.7656779  55.1854465  33.3502455  66.9829110  57.1447023  33.5573890
  67.4264815  58.1390478  33.6085886  66.1709795  57.0379568  32.2668531
  65.5320583  56.1550780  32.2467551  65.5565551  57.9327924  32.1675958
  67.0333336  56.9715137  31.0415761  67.5915276  58.1229689  30.5091183
  67.3722428  59.0833150  30.9757547  68.4129766  58.0653309  29.4062146
  68.8472583  58.9774721  28.9969489  68.6854860  56.8497182  28.8197111
  69.3324160  56.8018826  27.9437583  68.1433459  55.6982277  29.3369614
  68.3556306  54.7368867  28.8691378  67.3282433  55.7594250  30.4513565
  66.9113826  54.8446034  30.8725792  66.0635387  57.0015959  34.7526167
  65.6887416  55.8795781  35.1181973  65.7134939  58.1088513  35.3965306
  66.1856746  59.4799327  35.1566510  65.7672255  59.8535406  34.2220828
  67.2739342  59.4874518  35.0955480  65.6754781  60.2235047  36.3535630
  65.4583034  61.2545450  36.0744751  66.4325373  60.2116513  37.1376689
  64.4458122  59.5084897  36.7915190  63.6274360  59.8594302  36.1628695
  64.1721280  59.6223448  37.8404392  64.7429556  58.0388052  36.4860878
  65.1858260  57.5147288  37.3330283  63.5046852  57.2911239  36.0198902
  63.0967158  57.3903668  34.8571139  62.9281906  56.5118236  36.9338082
  63.3301977  56.4010256  37.8537067  61.7401766  55.7429076  36.6040267
  61.9722305  54.9836062  35.8572258  61.2303006  55.0495543  37.8610935
  61.2579005  55.7915687  38.6590610  60.2015628  54.7266171  37.7013744
  62.0741955  53.8632636  38.2494293  63.1270193  53.4437644  37.4478381
  63.3438710  53.9943496  36.5324526  63.8972527  52.3446515  37.7945086
  64.7266765  52.0335842  37.1593747  63.6088377  51.6401716  38.9508169
  64.3808444  50.5461902  39.2947445  65.0825865  50.3691138  38.6640293
  62.5537562  52.0331037  39.7566621  62.3158926  51.4791714  40.6647812
  61.7988133  53.1378894  39.4020528  60.9680957  53.4553978  40.0322884
  60.6615166  56.6191800  35.9833744  60.0724299  56.2579874  34.9606330
  60.3891462  57.7798834  36.5864597  60.8471979  58.0558147  37.4432852
  59.4081114  58.6839538  36.0069242  58.4318540  58.2000855  36.0367921
  59.3803771  59.5941889  36.6059252  59.7343338  59.0470158  34.5739113
  58.8330569  59.2570753  33.7588941  61.0255554  59.1039424  34.2413904
  61.7386655  58.9816827  34.9461073  61.4455294  59.4250686  32.8794973
  60.8373508  60.2188388  32.4457383  62.9260818  59.8449305  32.8602220
  63.5248036  59.0768352  33.3497751  63.3962848  60.0149875  31.4242670
  62.7982936  60.7833033  30.9341670  64.4449614  60.3121966  31.4175757
  63.2831479  59.0715442  30.8902127  63.1352097  61.1286597  33.6719269
  62.5426330  61.0417138  34.5826376  64.1924748  61.1849764  33.9309990
  62.7384187  62.3606928  32.9381814  61.6810916  62.3053091  32.6791600
  62.9121309  63.2320629  33.5695588  63.3309324  62.4485704  32.0275196
  61.1917895  58.2519887  31.9382452  60.7299351  58.4384471  30.8035378
  61.5140797  57.0302977  32.3726402  62.0176472  56.8958305  33.2377632
  61.1943024  55.8530745  31.5665173  61.7382139  55.8917236  30.6227134
  61.5897522  54.5831463  32.3036034  61.2318911  54.6849987  33.3281329
  61.1362253  53.7036082  31.8466285  63.0969478  54.4288943  32.3084588
  63.5553194  55.3982852  32.5041056  63.5204618  53.4380164  33.3910769
  63.0628215  52.4681995  33.1958354  64.6055566  53.3348682  33.3855559
  63.1956486  53.8029020  34.3654768  63.5718633  53.9791712  30.9439489
  63.2886743  54.7211293  30.1973556  64.6563444  53.8700671  30.9538693
  63.1131591  53.0219021  30.6963094  59.7170259  55.8141377  31.2078993
  59.3581769  55.6692823  30.0354688  58.8381475  55.9456000  32.2046999
  59.1325406  56.0206161  33.1679261  57.4066501  55.8819892  31.9210317
  57.2077749  54.9437025  31.4031844  56.6124850  55.8974741  33.2248550
  56.7942053  56.8349248  33.7504632  55.5490180  55.8054603  33.0042385
  56.9264347  55.0631091  33.8520472  56.9689361  57.0096281  30.9804622
  56.2080708  56.7760212  30.0303018  57.4502259  58.2361926  31.2041891
  58.0380065  58.4512726  31.9968768  57.0609662  59.3267980  30.3149879
  55.9720595  59.3667305  30.2869382  57.5830570  60.6578364  30.8352994
  58.6725563  60.6365327  30.8605496  57.2510246  61.4611019  30.1775615
  57.2001481  60.8307835  31.8410674  57.5472156  59.0919983  28.8932285
  56.8430702  59.4156161  27.9350413  58.7500092  58.5355209  28.7344375
  59.3246600  58.3046313  29.5322882  59.2926503  58.2973780  27.3964803
  59.1801057  59.1912283  26.7829132  60.7741942  57.9537195  27.4890464
  60.8921341  56.9612497  27.9240097  61.2150512  57.9677293  26.4922772
  61.4253470  58.9055425  28.3050212  62.3590903  58.6906485  28.3645521
  58.5411909  57.1874196  26.6762644  58.3482755  57.2504534  25.4611942
  58.1200746  56.1570210  27.4027943  58.3956366  56.0393451  28.3673239
  57.2866003  55.1309233  26.7930091  57.7656754  54.7733821  25.8815539
  57.1279907  53.9576079  27.7522062  56.6413769  54.2980637  28.6662066
  56.5193903  53.1842429  27.2835780  58.1095849  53.5500166  27.9939527
  55.9219009  55.6895893  26.4009365  55.3650760  55.3146024  25.3582981
  55.3592619  56.5836849  27.2221006  55.7780681  56.8217854  28.1097992
  54.0752965  57.1975171  26.8727798  53.3514348  56.4219550  26.6225261
  53.5339207  58.0096168  28.0457586  53.4393328  57.3565396  28.9133083
  54.2316585  58.8156728  28.2727735  52.1741560  58.5979882  27.7040670
  51.7823366  58.1172139  26.8077219  51.2369543  58.3659015  28.8430665
  51.6278981  58.8468066  29.7397226  50.2605286  58.7862763  28.6022794
  51.1373115  57.2949574  29.0198449  52.3256376  60.0538472  27.4628416
  53.0149244  60.2155577  26.6340878  51.3551302  60.4848327  27.2169390
  52.7183209  60.5323903  28.3600011  54.1948018  58.0817711  25.6362483
  53.3059175  58.0885619  24.7774448  55.2846438  58.8353762  25.5341063
  55.9501795  58.8932371  26.2916112  55.5220322  59.6373649  24.3456684
  54.7437685  60.3926980  24.2366887  56.8657797  60.3384920  24.4692054
  56.7424462  61.1783860  25.1529203  57.5697816  59.6238933  24.8956208
  57.3939932  60.8374159  23.1533682  56.9204037  62.0155211  22.6041350
  56.1538808  62.5742832  23.1410959  57.4022012  62.4878318  21.3955327
  57.0202321  63.4215464  20.9827633  58.3690961  61.7787440  20.7162958
  58.8482798  62.2418112  19.5014705  58.4384828  63.0650157  19.2257886
  58.8581399  60.5978019  21.2494319  59.6250007  60.0331400  20.7191660
  58.3691003  60.1339263  22.4622059  58.7513720  59.2045606  22.8844000
  55.4841681  58.7898499  23.0822857  54.9098372  59.1984072  22.0636047
  56.1131075  57.6130025  23.1181518  56.5728509  57.2889214  23.9570241
  56.1963971  56.7854375  21.9204790  56.5947689  57.3711098  21.0919941
  57.1129259  55.6007438  22.1615200  57.0290312  55.2908182  23.2031567
  56.8629321  54.7617803  21.5121025  58.5507614  55.9104139  21.9234137
  59.1142042  55.8944703  20.6675284  60.3932008  56.2084075  20.7579993
  61.0208754  56.2395923  19.8674091  60.6764915  56.4418342  22.0250453
  61.5793318  56.7037451  22.3943446  59.5380327  56.2712226  22.7744933
  59.5660867  56.4308993  23.8523697  54.8411844  56.2885488  21.4683385
  54.6851192  55.9158529  20.3000840  53.8617920  56.2649761  22.3612976
  54.0483895  56.4440298  23.3376277  52.5235247  55.8788025  21.9795915
  52.5305590  55.4190987  20.9912990  51.9805595  54.8728915  22.9786819
  52.3373581  55.1683089  23.9653544  50.8936822  54.7920930  22.9950986
  52.5027340  53.5104952  22.7299889  53.7599019  53.1437783  23.1779502
  54.3542203  53.8591943  23.7463387  54.2658904  51.8784823  22.9097753
  55.2481266  51.5933643  23.2866313  53.5276064  50.9850806  22.1686410
  53.9219146  49.9919692  21.9533487  52.2821791  51.3507849  21.6968442
  51.6945671  50.6444237  21.1104431  51.7797080  52.6123596  21.9676230
  50.8047809  52.9057904  21.5783732  51.6042976  57.0673463  21.8260427
  50.3929720  56.8826623  21.6729602  52.1542617  58.2824430  21.8350016
  53.1402273  58.3936390  22.0236991  51.3495535  59.4792599  21.6422740
  50.5515106  59.2716209  20.9294536  50.7190690  59.9362724  22.9650449
  50.2965896  60.9279403  22.8031643  49.9194388  59.2364447  23.2078056
  51.6460084  59.9866628  24.0396565  51.1965700  60.2775022  24.8365362
  52.1730239  60.6047816  21.0373943  52.4925391  60.5711010  19.8421782
  52.5086911  61.5979501  21.8616388  52.2777542  61.5041760  22.8404002
  53.1687426  62.8243776  21.4200942  53.9448506  62.5763878  20.6960384
  52.1770868  63.7862362  20.7635216  52.7178106  64.6239429  20.3231076
  51.6218668  63.2631864  19.9849012  51.2759279  64.2689173  21.7416426
  50.6523609  64.8729692  21.3319044  53.8205138  63.4990395  22.6206601
  53.5170590  63.1788110  23.7719055  54.7114801  64.4557471  22.3400614
  55.0058673  64.6624200  21.3962808  55.3352324  65.1889374  23.4347672
  55.7017934  64.4862126  24.1830386  56.5115992  66.0244877  22.9319153
  57.2670299  66.0677082  23.7164889  56.9308952  65.5385691  22.0509079
  56.1044131  67.3369461  22.5971344  56.8620503  67.8372793  22.2852811
  54.3242061  66.0747062  24.1403914  54.3917384  66.2445629  25.3630169
  53.3673746  66.6310961  23.4007261  53.3382019  66.5100010  22.3984366
  52.3811387  67.5089641  24.0200948  52.8795566  68.3320077  24.5322258
  51.4590284  68.0880558  22.9472149  50.9649316  67.2434149  22.4670594
  50.7169895  68.6963446  23.4643832  52.1719934  68.9460125  21.8745676
  51.3989093  69.4894625  21.3313330  52.8077593  69.6540706  22.4061263
  53.0264113  68.1355960  20.8787041  53.7904439  68.7584957  20.0847418
  52.9358573  66.8804956  20.8928749  51.5935809  66.7750558  25.1019558
  51.3427401  67.3267540  26.1808637  51.2161006  65.5151850  24.8513162
  51.3774627  65.0734650  23.9574790  50.4911757  64.7626641  25.8765055
  49.7280836  65.3986166  26.3252306  49.8119057  63.5367866  25.2748497
  48.9954957  63.9233281  24.6648008  50.5111779  62.9909674  24.6414464
  49.2504753  62.5974256  26.3398426  50.0479567  62.3386978  27.0363943
  48.1171012  63.2562984  27.0938530  47.3189876  63.5149147  26.3979857
  47.7329339  62.5685320  27.8471747  48.4813567  64.1609985  27.5806136
  48.7965479  61.3160139  25.7015990  49.6416261  60.8360353  25.2080780
  48.3970696  60.6501094  26.4665105  48.0210227  61.5305346  24.9663165
  51.4111787  64.3360711  27.0134848  51.0205036  64.3921091  28.1873837
  52.6244179  63.8818476  26.6852446  52.8853505  63.7389009  25.7200607
  53.5816987  63.5174059  27.7205154  53.2070958  62.6721784  28.2978908
  54.9113139  63.1196992  27.0785038  54.7187507  62.2184031  26.4965382
  55.1884365  63.9326305  26.4073512  56.0519737  62.8581505  28.0584289
  55.6222528  62.3036381  28.8926692  56.7707879  62.2274014  27.5353955
  56.8961736  64.3199163  28.6906916  57.5568218  64.9889923  27.1633874
  56.7377630  65.2131361  26.4800126  58.1119120  65.9025505  27.3764295
  58.2228639  64.2584890  26.7041988  53.7659885  64.6650065  28.7022705
  53.6346293  64.4842626  29.9198572  54.0496292  65.8661146  28.1872770
  54.1470406  66.0124657  27.1926958  54.2952159  66.9948370  29.0803738
  55.0857640  66.7419434  29.7868988  54.7283478  68.2220238  28.2824292
  55.6652609  67.9731142  27.7840949  53.9590019  68.4128741  27.5342427
  54.9246105  69.4714338  29.1411944  53.9565482  69.9595647  29.2538192
  55.3035148  69.1862690  30.1226294  55.8977872  70.4597982  28.5121300
  56.0758159  70.4885448  27.2842581  56.5511840  71.2647564  29.3552100
  57.2095752  71.9407414  28.9951173  56.3836575  71.1934996  30.3486680
  53.0654825  67.3177905  29.9242011  53.1841864  67.6687966  31.1050132
  51.8732154  67.2141847  29.3331858  51.7936755  66.9768407  28.3546969
  50.6500889  67.5081008  30.0762800  50.6893178  68.5207287  30.4777089
  49.4383671  67.3967012  29.1474693  49.6140314  68.0915742  28.3262551
  49.4355690  66.3760747  28.7648289  48.1011955  67.6990147  29.7858677
  48.0930513  67.2887443  30.7956760  47.9703522  68.7801318  29.8324289
  46.9620362  67.0833206  28.9777002  46.8317762  67.6665374  28.0661139
  47.2369497  66.0609871  28.7181695  45.6529917  67.0737870  29.7676380
  45.8930557  66.8876006  30.8144448  45.1939841  68.0576047  29.6700996
  44.6997944  66.0289892  29.2817145  45.1247655  65.1172473  29.3724115
  43.8539901  66.0625335  29.8327044  44.4768836  66.2015790  28.3118575
  50.4959020  66.5797746  31.2793926  50.1645540  67.0266693  32.3817911
  50.7579670  65.2850603  31.0974318  51.0802834  64.9416335  30.2039725
  50.5124263  64.3178884  32.1629670  49.7864915  64.6754982  32.8931952
  50.0091051  62.9855501  31.5812632  49.7660940  62.3031689  32.3957574
  48.7658653  63.2328155  30.7390782  49.0082194  63.9147931  29.9240494
  48.4109884  62.2877420  30.3279833  47.9866757  63.6732643  31.3611473
  51.1264626  62.2953910  30.7634670  51.9818569  62.0987609  31.4097944
  50.7532282  61.3544157  30.3592872  51.4326404  62.9460675  29.9443357
  51.7169853  64.0369644  33.0619138  51.5338439  63.4973680  34.1641860
  52.9396879  64.3706053  32.6336674  53.0573923  64.8261131  31.7399349
  54.1341144  64.0571319  33.4137576  53.8522953  63.4860277  34.2983576
  55.1284095  63.2259540  32.5890792  55.7533458  62.6377608  33.2610782
  54.5790506  62.5573785  31.9262733  55.9478466  64.0898074  31.8161567
  56.5679293  63.5674718  31.3020916  54.8672358  65.2842697  33.9268052
  55.7407836  65.1437239  34.7945190  54.5637838  66.4694572  33.4002005
  53.8114638  66.5328980  32.7293136  55.2724468  67.6795614  33.7518119
  54.6551536  68.5163228  33.4248889  55.3575688  67.6942649  34.8383833
  56.6466797  67.8197861  33.1504592  57.2108643  68.9190726  33.2020532
  57.2106958  66.7550439  32.5858859  56.7144467  65.8767016  32.5373991
  58.5593605  66.8135942  32.0532759  59.2032233  67.3484362  32.7514764
  59.1282576  65.4120239  31.8402534  58.3663850  64.8710761  31.2789825
  60.0268758  65.5095206  31.2310903  59.4565257  64.6529334  33.1024371
  60.5385975  65.0132651  33.9023537  61.1554183  65.8645665  33.6143995
  60.8362915  64.2964057  35.0622645  61.6773973  64.5849303  35.6926584
  60.0537819  63.2050460  35.4071669  60.3144016  62.4607752  36.5468758
  61.0707723  62.7845733  37.0415048  58.9875339  62.8388206  34.6173927
  58.3737933  61.9819336  34.8951834  58.6967376  63.5519165  33.4804223
  57.8550920  63.2581445  32.8531816  58.5669694  67.5660510  30.7384459
  57.6381930  67.4554530  29.9401198  59.6178583  68.3350122  30.5107816
  60.3056568  68.5357883  31.2226254  59.7744830  68.9551287  29.2087712
  58.7931011  69.1790658  28.7906313  60.5671572  70.2541562  29.3147532
  61.6181100  69.9919190  29.4365275  60.4352841  70.7998479  28.3804459
  60.1282461  71.1211163  30.4695849  59.0386915  71.1477169  30.4858321
  60.4951299  70.7078944  31.4091305  60.6392659  72.5223940  30.3310005
  60.1458569  73.2909188  29.4977813  61.6516924  72.8696380  31.1314025
  62.0350980  73.8026118  31.0798147  62.0287539  72.1974921  31.7842009
  60.4681933  67.9841476  28.2727248  61.0419773  66.9808927  28.6972404
  60.4039792  68.2864285  26.9807012  59.8728575  69.0767642  26.6439840
  61.0552853  67.4265924  26.0042360  60.6319387  66.4229700  26.0444720
  60.8432455  67.9890622  24.6028357  59.8010323  67.9008154  24.2960732
  61.1396789  69.0377954  24.5831904  61.6442162  67.3057496  23.5743228
  62.7630302  67.7829425  22.9573624  63.0998682  68.7784349  23.2465593
  63.2420949  66.8516823  22.0600267  64.0611611  66.9587649  21.4788526
  62.4295776  65.7494040  22.0942052  62.5097861  64.5602278  21.3843345
  63.3240528  64.4348017  20.6706563  61.5550964  63.6148133  21.6273593
  61.5874555  62.6694142  21.0858120  60.5335576  63.8287653  22.5560907
  59.7773246  63.0662311  22.7425115  60.4504326  65.0163606  23.2684099
  59.6358971  65.1377182  23.9824862  61.4138717  65.9998818  23.0399908
  62.5394028  67.2715038  26.3094375  63.0908137  66.1656769  26.2154905
  63.2029487  68.3645471  26.6914166  62.7571976  69.2706210  26.7122836
  64.6256672  68.2852882  27.0116523  65.1856647  67.9232047  26.1494472
  65.1480137  69.6719017  27.3859935  66.2155539  69.6426138  27.6041665
  64.9604316  70.3898684  26.5875971  64.3512652  70.3469645  28.8659310
  65.0255011  71.4933500  28.8761506  64.9109925  67.2743233  28.1270327
  65.9672519  66.6267436  28.1212420  63.9841809  67.1146028  29.0862040
  63.1680701  67.7089114  29.1155271  64.1458437  66.1063526  30.1336340
  65.1280561  66.2003997  30.5967897  63.0816873  66.3007167  31.2056171
  62.1054139  66.1319044  30.7512034  63.2501913  65.5613220  31.9885615
  63.1247373  67.6792521  31.8014727  64.2361297  68.2581274  31.8045499
  62.0659179  68.1795689  32.2592811  64.0563232  64.6856049  29.5997511
  64.6247480  63.7714502  30.1991679  63.3728333  64.5018765  28.4819387
  63.0955871  65.3156406  27.9518237  62.9450923  63.1955641  28.0123789
  63.0967086  62.3911680  28.7321419  61.4486914  63.2595843  27.6178150
  61.2709255  64.2497661  27.1982441  61.0219708  62.2027514  26.6170454
  61.1990158  61.2122300  27.0361196  59.9610221  62.3186689  26.3955691
  61.5987790  62.3167876  25.6992289  60.5872085  63.2118772  28.8692639
  60.5763126  64.2061185  29.3158804  59.5743638  62.9340107  28.5776558
  61.1089850  62.2219358  29.8669549  62.1216903  62.4994230  30.1594077
  60.4654209  62.2183064  30.7466772  61.1197436  61.2273150  29.4211819
  63.7871711  62.7050059  26.8493377  63.7758446  61.4989772  26.5566340
  64.5507721  63.5861128  26.2125976  64.7450842  64.4871438  26.6254963
  65.0591514  63.3154914  24.8741214  64.2552543  62.9771997  24.2203574
  65.6468209  64.5982654  24.2994193  64.9074053  65.3860033  24.4437548
  66.5420285  64.8308578  24.8761378  66.0012681  64.5045677  22.8391320
  66.5393470  63.5685870  22.6890914  65.0834800  64.4937091  22.2512152
  66.8646021  65.6548957  22.3990448  67.7995689  65.4002931  21.6117305
  66.6155569  66.7991700  22.8526677  66.0862099  62.1808575  24.8515222
  66.0007629  61.2853740  24.0028537  67.0951810  62.2171497  25.7398731
  67.2104239  62.9871410  26.3832484  68.0872562  61.1380941  25.7625421
  68.6083048  61.1081335  24.8056148  69.1204282  61.3462400  26.8768634
  68.6086710  61.3673809  27.8390260  69.8174085  60.5084817  26.8549627
  69.9043080  62.6322478  26.7172722  70.0720014  63.1358205  25.6039706
  70.3812275  63.1816461  27.8332988  70.9112137  64.0399759  27.7834558
  70.2106211  62.7373138  28.7241204  67.4089941  59.7957181  25.9531419
  67.7493536  58.8104208  25.2857668  66.4411861  59.7436495  26.8684569
  66.2300468  60.5428131  27.4488508  65.7097592  58.5086278  27.1030289
  66.4026349  57.6979832  27.3285900  64.7671753  58.6868830  28.2865540
  65.2872217  59.1055863  29.1481447  63.9219349  59.3246299  28.0278116
  64.0728217  57.1462046  28.8314943  63.3459075  57.6626262  29.8183088
  64.9431740  58.0696986  25.8590947  64.9817953  56.8927247  25.4816854
  64.2523743  58.9991017  25.1952274  64.1944582  59.9518548  25.5253886
  63.4782020  58.6273770  24.0134219  62.7623976  57.8373812  24.2406438
  62.7103852  59.8457984  23.4726106  63.3826921  60.7025673  23.4273383
  62.1784015  59.5497140  22.0894193  61.5056070  58.6932888  22.1339675
  61.6362849  60.4178620  21.7145472  63.0090720  59.3241326  21.4206883
  61.5703713  60.2049715  24.4083050  61.9701041  60.4443150  25.3937137
  61.0347696  61.0687455  24.0144460  60.8864593  59.3601317  24.4896135
  64.3746763  58.0071350  22.9433496  64.0065044  57.0071864  22.3096294
  65.5622909  58.5898896  22.7142091  65.8362919  59.4255772  23.2108469
  66.4687640  58.0613718  21.6891332  65.9283126  57.9378230  20.7506519
  67.6438275  59.0176771  21.4554774  67.8618263  59.4853182  22.4156271
  68.4909150  58.4032224  21.1505380  67.3973594  60.0981046  20.4087706
  67.0094714  59.6270927  19.5055588  66.6591417  60.7992754  20.7979958
  68.6857276  60.8474164  20.0784053  68.4203225  61.8626780  19.7836122
  69.2986136  60.8796676  20.9791994  69.4698152  60.1811884  18.9546344
  70.5095177  60.0966907  19.2708295  69.0563115  59.1850033  18.7973797
  69.3981752  60.9641638  17.6668086  69.7816833  61.8871390  17.8121978
  69.9300063  60.4872189  16.9528204  68.4348845  61.0422100  17.3734164
  66.9920129  56.6783109  22.0634833  67.0412882  55.7781599  21.2162607
  67.4111252  56.4999728  23.3228349  67.5282358  57.2901961  23.9408410
  67.7735045  55.1728837  23.8182063  68.6227209  54.7828468  23.2571343
  68.1623799  55.2564113  25.3029289  69.1014332  55.8033097  25.3876652
  67.4059377  55.7358906  25.9242136  68.4028114  53.8961204  25.8917688
  69.5504217  53.1689291  25.8143261  70.3916436  53.6339108  25.3002858
  69.3852905  51.9502546  26.4317791  70.0953257  51.2377279  26.5226371
  68.1079231  51.8673263  26.9200336  67.4826758  50.8414993  27.6281344
  68.0545684  49.9396563  27.8465762  66.1847468  51.0325943  28.0058022
  65.6658530  50.2499999  28.5593319  65.4993548  52.2157619  27.6980645
  64.4621074  52.3585740  28.0010860  66.1220206  53.2427521  26.9970336
  65.5515375  54.1481007  26.7896844  67.4548792  53.0724676  26.5988512
  66.6345322  54.1658077  23.6152505  66.8755898  52.9934770  23.2924674
  65.3814973  54.6141191  23.7787262  65.2340526  55.5963617  23.9619171
  64.2218564  53.7276946  23.7830312  64.4688860  52.7695587  24.2402523
  63.1088011  54.3883567  24.6020181  63.5602945  54.6630738  25.5553194
  62.8316696  55.2914324  24.0581869  61.8716537  53.5503278  24.8523852
  61.3450440  53.4073871  23.9088010  62.1756552  52.5814650  25.2486048
  60.7667560  54.3542799  26.0329622  61.7926241  54.2036393  27.4885209
  62.7375481  54.7210979  27.3228275  61.2805586  54.6477854  28.3421155
  61.9863581  53.1500217  27.6896635  63.7341597  53.3698743  22.3800573
  63.0083410  52.3775019  22.2176219  64.1598293  54.1218100  21.3684665
  64.7996644  54.8721256  21.5869542  63.7067731  53.9768662  19.9832873
  62.6641270  54.2721214  19.8657607  64.5676402  54.8310809  19.0419259
  65.5946514  54.8490524  19.4066507  64.5375933  54.2388916  17.6447609
  63.5108926  54.2210151  17.2791558  65.1494254  54.8471051  16.9785490
  64.9308523  53.2226635  17.6717710  64.0744659  56.2630300  19.0351617
  64.1347033  56.6733674  20.0431780  64.6935883  56.8579182  18.3636744
  63.0396585  56.2898507  18.6937602  63.6976080  52.5326370  19.4927937
  62.6461655  52.0544451  19.0445357  64.8307970  51.8145522  19.5200462
  66.1157129  52.1725166  20.1389693  66.0139800  52.1637188  21.2241758
  66.4150778  53.1678607  19.8106861  67.0409505  51.1026242  19.6382591
  67.7951430  50.9052152  20.4000481  67.5274513  51.4555003  18.7289205
  66.2267054  49.9109325  19.3684060  66.1704878  49.3004979  20.2696874
  66.6269322  49.3130165  18.5496175  64.8281456  50.4318398  19.0022900
  64.6853153  50.4798813  17.9227578  63.7379635  49.5762305  19.6181323
  62.9842699  48.9109719  18.8928172  63.6438481  49.5757113  20.9523422
  64.3225687  50.0724476  21.5115298  62.5905244  48.8369380  21.6385180
  62.6993153  47.7693357  21.4474966  62.6771336  49.0743723  23.1435604
  62.3961399  50.1038304  23.3657263  62.0126796  48.3939296  23.6761002
  64.0389650  48.8721774  23.7121496  64.5277513  47.6019858  23.9341258
  63.9095802  46.7386869  23.6877940  65.7803803  47.4202522  24.4601804
  66.1648770  46.4141752  24.6277274  66.5532211  48.5137927  24.7770338
  67.5491172  48.3757038  25.1980116  66.0663738  49.7851324  24.5613761
  66.6763643  50.6532315  24.8112073  64.8207539  49.9561500  24.0351176
  64.4338878  50.9610243  23.8658182  61.2200464  49.2509841  21.1347463
  60.3546895  48.4055500  20.8711564  60.9940398  50.5605619  21.0196417
  61.6537675  51.2500746  21.3504453  59.7280691  51.0246344  20.4688533
  58.9187338  50.6994285  21.1225478  59.7093282  52.5515739  20.3905567
  60.5085528  52.8919799  19.7321770  58.7487388  52.8839585  19.9969976
  59.8573152  52.9688200  21.3866013  59.4763350  50.4040887  19.1013479
  58.3756483  49.9156047  18.8254908  60.4927084  50.3771489  18.2402460
  61.4166551  50.7057513  18.4819944  60.2517305  49.9388950  16.8725599
  59.3567418  50.4240987  16.4831094  61.4302418  50.3001120  15.9769531
  62.3279057  50.4306748  16.5813140  61.5964919  49.5080975  15.2467655
  61.1120254  51.6079113  15.2472688  61.5590574  52.4342644  15.7999024
  61.5438968  51.5643726  14.2474221  59.2915431  51.8835730  15.1105870
  59.1530344  53.6225079  14.7320312  59.6736044  53.8341498  13.7980538
  58.1013145  53.8899962  14.6298752  59.5994879  54.2067335  15.5366807
  59.9639022  48.4590357  16.8170219  58.9989368  48.0298230  16.1786988
  60.7946341  47.6633511  17.4802807  61.6732425  48.0176296  17.8304712
  60.5078501  46.2421788  17.6427719  60.5943227  45.6725963  16.7174626
  61.4671266  45.6414121  18.6801715  61.5514258  46.3292311  19.5215382
  60.9537903  44.2945542  19.1750185  60.8696628  43.6060126  18.3342249
  61.6491698  43.8875389  19.9091073  59.9748500  44.4254024  19.6361652
  62.8659830  45.5358795  18.0695450  63.2132508  46.5282409  17.7819240
  63.5515353  45.1097631  18.8020357  62.8311728  44.8943437  17.1890218
  59.0430960  46.0238555  18.0205211  58.3377497  45.2277143  17.3904072
  58.5547955  46.7411953  19.0436014  59.1448770  47.3707773  19.5685106
  57.1669461  46.5634739  19.4799524  56.9624444  45.5021856  19.6211808
  56.9003773  47.3157884  20.7942317  57.1795466  48.3625529  20.6740283
  55.4134686  47.2220013  21.1533021  55.1336441  46.1754837  21.2741312
  55.2297943  47.7566074  22.0852682  54.8179043  47.6671107  20.3562576
  57.7309336  46.7388915  21.9297858  58.6246551  46.2884086  21.4980129
  58.0194050  47.5596184  22.5865134  56.9851990  45.7098348  22.7169143
  56.6967782  44.8885131  22.0609082  57.6227575  45.3298565  23.5151842
  56.0915264  46.1597228  23.1494070  56.1859331  47.0032234  18.3988720
  55.1448440  46.3669052  18.2010674  56.4713659  48.1169321  17.7127700
  57.2811948  48.6801553  17.9296944  55.5608917  48.5849543  16.6682127
  54.5440850  48.6289832  17.0584240  55.9622714  49.9819922  16.1908496
  57.0376201  49.9489057  16.0158365  55.4454814  50.1428537  15.2447250
  55.6383495  51.1241005  17.1469203  56.0520227  50.8693082  18.1226539
  56.1259922  52.0229499  16.7695923  54.1481842  51.3755248  17.2798237
  53.6654850  51.2332853  16.3129378  53.7229205  50.6800956  18.0034454
  53.8909764  52.7421143  17.7357560  54.6763851  53.3769012  17.7524352
  52.7040162  53.1923956  18.1250197  51.6580408  52.3752234  18.1223765
  51.7706814  51.4166929  17.8246661  50.7543147  52.7157155  18.4180857
  52.5616297  54.4578454  18.5151887  53.3602143  55.0761999  18.5145066
  51.6557233  54.7933180  18.8099605  55.5126180  47.6119677  15.4911232
  54.4377794  47.3852815  14.9196722  56.6608253  47.0190647  15.1151353
  57.5293750  47.2349727  15.5832214  56.6936915  46.0859412  13.9848781
  56.3795042  46.5999883  13.0765053  58.1076777  45.5366701  13.7723123
  58.3802278  45.0319679  14.6991841  58.0315217  44.8038651  12.9690085
  59.1716825  46.5613967  13.4227708  58.8694156  47.0509827  12.4970057
  59.2102168  47.2968712  14.2263201  60.5583215  45.9324750  13.2389261
  60.6471691  44.6814932  13.2889312  61.5536557  46.6867595  13.0499692
  55.7201554  44.9301646  14.1892944  55.0203283  44.5239317  13.2571506
  55.6638522  44.3852262  15.4106150  56.1923621  44.8021748  16.1635629
  54.8919010  43.1771141  15.6923003  54.9332868  42.4824554  14.8533511
  55.4368364  42.4728945  16.9380069  54.9432770  41.5062515  17.0385091
  56.9420657  42.2653594  16.8309649  57.4363814  43.2316604  16.7308955
  57.3048465  41.7634036  17.7279207  57.1636172  41.6522954  15.9573700
  55.1339751  43.2554067  18.1052081  55.4763036  42.8124531  18.8850822
  53.4072942  43.4374001  15.9037121  52.6266226  42.4779513  15.8724109
  53.0022737  44.6954950  16.1073919  53.6522812  45.4569302  15.9739528
  51.6442509  45.0125612  16.5189124  51.3852028  46.0252148  16.2098396
  50.9428162  44.3067960  16.0739583  51.5483837  44.9180071  18.0267984
  52.2385190  44.0891318  18.6420576  50.7284623  45.7495326  18.6575189
  50.1656210  46.4437642  18.1870389  50.7066185  45.7139079  20.1131472
  51.6643572  45.3457397  20.4809622  50.4604037  47.1051949  20.6985946
  49.6865181  47.6090111  20.1194836  50.1338087  47.0087718  21.7340357
  51.6575151  47.8650578  20.6494443  51.4982948  48.7371691  21.0177793
  49.6661736  44.7217868  20.6184058  48.6113418  44.5250477  20.0043532
  49.9864224  44.0981363  21.7550916  50.8306492  44.3608393  22.2433207
  49.1931145  42.9992851  22.2893674  48.9930973  42.2712968  21.5031579
  49.9430353  42.3012181  23.4213547  50.3242772  43.0531246  24.1122893
  49.2557368  41.6394429  23.9483978  51.0250525  41.5434217  22.9033455
  51.4870197  41.1105722  23.6250293  47.8241971  43.4718273  22.7772720
  47.5934477  44.6576537  23.0393624  46.9034586  42.5122174  22.8734984
  47.1755417  41.5709560  22.6283513  45.5266402  42.7479524  23.2840407
  45.2634208  43.7851698  23.0766889  44.5465736  41.8341016  22.5353550
  44.8144696  40.8140514  22.8107249  43.5566173  42.0675937  22.9272327
  44.5349706  41.9638876  21.0136891  45.5681898  41.9206721  20.6691729
  43.9828843  41.1139960  20.6124574  43.8911680  43.2630724  20.5306166
  42.8986468  43.3514858  20.9724126  44.5070746  44.1033827  20.8509866
  43.7729178  43.2704518  19.0099508  44.6774308  42.8250289  18.5957587
  42.9102983  42.6646875  18.7323967  43.6064941  44.6451698  18.4707970
  44.4059151  45.2065299  18.7275079  43.5322826  44.6053527  17.4643144
  42.7681780  45.0579303  18.8541428  45.3859116  42.5121053  24.7804048
  46.1593800  41.7638691  25.3856677  44.3929218  43.1712980  25.3702015
  43.8646726  43.8686439  24.8654632  44.0692351  42.9399060  26.7679074
  44.9508021  43.0984846  27.3890287  42.9777527  43.9110833  27.2126979
  43.3592498  44.8634620  26.8445485  42.0721032  43.6474585  26.6664371
  42.6561446  44.0329313  28.7049564  42.1493046  43.1223948  29.0245458
  43.9260161  44.2295260  29.5387177  44.4331926  45.1401783  29.2199965
  43.6601913  44.3121435  30.5925736  44.5895734  43.3763487  29.3977187
  41.6679791  45.1766796  28.9480421  40.7450306  44.9824212  28.4016638
  41.4503747  45.2492188  30.0136347  42.1039677  46.1138935  28.6021476
  43.6215894  41.4960358  26.9585648  42.9200050  40.9361954  26.1134305
  44.0650888  40.8811574  28.0553591  44.7238747  41.3681335  28.6460830
  43.6856892  39.5208346  28.4180145  43.2605334  39.0158039  27.5506705
  44.9060815  38.7232746  28.9009450  45.4037936  39.3316731  29.6560829
  44.5266185  37.8114007  29.3620240  45.9044215  38.3602504  27.7997222
  45.4697863  37.5518049  27.2118369  46.0347427  39.2388225  27.1678761
  47.2689597  37.9175797  28.3481855  48.0437877  38.4521919  27.7987035
  47.3154750  38.1932712  29.4017176  47.4886556  36.4241676  28.2067845
  46.9912663  35.9092601  29.0287180  47.0667844  36.0878689  27.2596694
  48.9412976  36.1176461  28.2378484  49.3323208  36.4288009  29.1155632
  49.0772288  35.1213340  28.1430591  49.4023099  36.5943334  27.4760506
  42.6047033  39.5410648  29.5000557  42.3897587  40.5505052  30.1788429
  41.8893907  38.4183100  29.6163801  41.9642486  37.7289365  28.8820369
  40.9814904  38.1507007  30.7260951  40.8033239  39.0719204  31.2808115
  39.6326892  37.6131153  30.2201896  39.1543586  38.3957209  29.6312691
  39.7701509  36.7262746  29.6015477  38.6596817  37.2348967  31.3050929
  37.7569468  38.1288773  31.8489038  37.0262587  37.5114448  32.7661676
  36.2564602  38.0524226  33.3164877  37.4158437  36.2485603  32.8330351
  37.0391471  35.5408351  33.4473027  38.4279385  36.0463640  31.9231083
  38.8766815  35.0586391  31.8176067  41.6593528  37.1426353  31.6464187
  42.2633702  36.1690652  31.1769272  41.5907275  37.3905524  32.9533038
  41.1293028  38.2282642  33.2779969  42.2078998  36.5147089  33.9410297
  42.6490585  35.6541899  33.4380533  43.3119104  37.2473796  34.7203694
  42.8983324  38.1017449  35.2561982  43.7679121  36.5589898  35.4319044
  44.4409548  37.7844539  33.8483472  44.3764861  39.0651807  33.3082788
  43.5030388  39.6829309  33.5170240  45.3979585  39.5572164  32.5179682
  45.3282166  40.5602837  32.0971444  46.5055732  38.7781411  32.2621764
  47.3145429  39.1641678  31.6419738  46.5895435  37.5036012  32.7943447
  47.4631311  36.8848204  32.5892710  45.5664799  37.0147982  33.5856641
  45.6376180  36.0140512  34.0117447  41.1361220  35.9949949  34.8883922
  40.4235749  36.7853284  35.5191278  41.0085645  34.6703849  34.9688062
  41.4986060  34.0654557  34.3253628  40.1453172  34.0587021  35.9708109
  39.1035445  34.1365772  35.6597735  40.4961417  32.5743591  36.1429909
  41.5819653  32.5206726  36.0642252  40.1929825  32.3193127  37.1584444
  39.8661415  31.5900480  35.1621461  38.7828659  31.6030226  35.2823397
  40.1216486  31.8811797  34.1432936  40.3945015  30.1745124  35.4374798
  39.7515161  29.6853757  36.1691997  40.3906091  29.6012711  34.5103990
  41.7682161  30.2087558  35.9649998  42.1081092  31.1103667  36.2677702
  42.5778782  29.1526139  36.0755688  42.1718958  27.9441246  35.6856972
  41.2446128  27.8252366  35.3034512  42.7934629  27.1529909  35.7743621
  43.8029482  29.3096955  36.5727316  44.1130542  30.2259366  36.8633114
  44.4165535  28.5118962  36.6570142  40.3084321  34.7797046  37.3008857
  41.4231050  34.9525929  37.7923366  39.1971020  35.2132473  37.8739888
  38.3112531  35.1989352  37.3890493  39.2299531  35.7219821  39.2218336
  38.2161576  35.6352927  39.6127339  39.8936942  35.0670741  39.7863179
  39.6967348  37.1482273  39.3795441  39.8846550  37.5989220  40.5156204
  39.8823622  37.8842011  38.2922635  39.8008028  37.4610894  37.3787955
  40.2667996  39.2847652  38.3716548  40.3698238  39.5982826  39.4104965
  41.5948230  39.5443686  37.6469392  41.4771027  39.3288936  36.5849544
  41.9936893  40.9885043  37.8255642  42.1120576  41.2046268  38.8873462
  42.9367363  41.1718750  37.3106486  41.2208309  41.6337705  37.4079244
  42.6651319  38.6173155  38.1970822  42.3642694  37.5813046  38.0413089
  43.6073553  38.8029412  37.6814680  42.7928443  38.8015607  39.2637799
  39.1481868  40.1352967  37.7893064  38.6900692  39.8876260  36.6658628
  38.6979312  41.1237406  38.5646950  38.9998807  41.1944121  39.5259085
  37.7476727  42.1061229  38.0662586  36.7613554  41.6642035  37.9248917
  37.6302021  43.2514914  39.0718596  38.6083725  43.7099735  39.2170380
  36.9321873  43.9980831  38.6930766  37.2661685  42.8642590  40.0235055
  38.2099011  42.6348182  36.7135076  39.3904284  42.9432649  36.5324281
  37.2796284  42.7471253  35.7526388  36.3240556  42.4535502  35.8968389
  37.6686882  43.2161946  34.4200397  38.5161698  42.6318019  34.0617669
  36.5156663  43.0666285  33.4245983  35.5806491  43.1651335  33.9760862
  36.5928617  43.8722797  32.6944838  36.5408684  41.7239163  32.7036373
  35.5563223  41.3856831  32.0055706  37.5538011  40.9986979  32.8366704
  38.1792178  44.6568404  34.4320870  39.0748464  44.9964125  33.6503305
  37.6500509  45.5158043  35.3076054  36.8596072  45.3008244  35.8984368
  38.1935416  46.8713495  35.3439929  38.3165133  47.2404466  34.3257864
  37.2580532  47.8249380  36.1021100  37.6663180  48.8246789  35.9539983
  36.2901893  47.7511506  35.6062320  37.0873910  47.5654111  37.5785683
  37.9951689  47.0887531  37.9484834  36.9469830  48.5204922  38.0847352
  35.8995739  46.6695844  37.8540535  35.2986447  46.1847985  36.8676911
  35.5654499  46.4535641  39.0462629  39.5947903  46.9371416  35.9446947
  40.1778813  48.0297904  35.9651039  40.1466495  45.8143375  36.4153871
  39.5952616  44.9681289  36.4140508  41.4844396  45.7673375  36.9959158
  41.9351628  46.7594182  36.9690122  41.4165097  45.2998940  38.4531461
  40.8058485  44.3984150  38.5034231  42.4336700  45.0671334  38.7682768
  40.8312470  46.3602187  39.3730728  41.2940839  47.5333845  39.3165211
  39.8958844  46.0260461  40.1432511  42.4309176  44.8758374  36.2068430
  43.5575900  44.6365038  36.6563525  42.0126714  44.3948535  35.0325247
  41.1168113  44.6670903  34.6538149  42.8019276  43.4096773  34.3015990
  43.1538382  42.6733767  35.0241774  41.9356704  42.6964422  33.2580612
  41.5832346  43.4192986  32.5222843  42.5262607  41.9286170  32.7583134
  41.0804455  42.2333455  33.7502309  44.0245658  44.0188920  33.6305294
  44.9672553  43.2881847  33.3144781  44.0338313  45.3319262  33.3976491
  43.2105012  45.9061360  33.5094972  45.2500417  45.9580691  32.8911824
  45.6157257  45.4020378  32.0279307  44.9807493  47.4104778  32.4622248
  45.8945655  47.8590989  32.0726374  44.2096314  47.4309178  31.6921214
  44.5039232  48.3016709  33.5707941  43.2468526  48.1929471  34.1311016
  43.1108833  49.0989705  35.0834702  42.1821956  49.1737867  35.6491915
  44.2337537  49.7940237  35.1625734  44.4213196  50.5505732  35.8048754
  45.1177746  49.3205046  34.2222327  46.1038739  49.7744246  34.1239168
  46.3798611  45.9123802  33.9146621  47.5448568  46.0791789  33.5325412
  46.0679678  45.6691054  35.1945812  45.0994196  45.5166913  35.4370346
  47.0547761  45.6920237  36.2692650  47.9138000  46.2928873  35.9707017
  46.4463265  46.3031006  37.5405033  45.5125307  45.7904701  37.7714464
  47.1504362  46.1613268  38.3603995  46.1585397  47.8059672  37.3945174
  46.9813666  48.5694760  36.8622616  44.9794388  48.2308078  37.8608526
  44.7352772  49.2084450  37.7922194  44.3384351  47.5721027  38.2795681
  47.6304574  44.3166057  36.5729581  48.4001108  44.1764658  37.5262919
  47.2811959  43.3114175  35.7856151  46.5616679  43.4616359  35.0929296
  47.8535369  41.9809497  35.9072798  48.2326139  41.7936338  36.9119254
  46.8147428  40.9121419  35.5456812  46.5064577  41.0542166  34.5098842
  47.3995005  39.5232383  35.7126127  47.7076116  39.3802439  36.7483350
  46.6479150  38.7782248  35.4515095  48.2639579  39.4113382  35.0581733
  45.5593687  41.1002141  36.3976706  45.0798175  42.0233727  36.0722333
  44.8986805  40.2572458  36.1951982  45.8384039  41.1740989  37.8698976
  46.4987052  42.0171667  38.0732170  44.9019577  41.3078460  38.4114506
  46.3175707  40.2510400  38.1961815  49.0771195  41.8919895  35.0017729
  49.0065380  42.2327218  33.8143961  50.2001226  41.4373134  35.5586424
  50.2285716  41.1833931  36.5357885  51.4276115  41.3262941  34.7795521
  51.6293752  42.2717540  34.2760680  52.6126028  40.9914513  35.6816396
  52.6879234  41.7771564  36.4333666  52.3976137  40.0411628  36.1703436
  53.9190853  40.8867755  34.9304915  54.6928414  40.5582105  35.6243556
  53.8249193  40.1616205  34.1221690  54.3306163  42.2128603  34.3426221
  54.2874611  43.2252812  35.0221187  54.7149361  42.2197523  33.0759900
  54.9988875  43.0865846  32.6423142  54.7224600  41.3581470  32.5490354
  51.2947483  40.2545943  33.7050750  50.7685440  39.1624104  33.9483659
  51.8045377  40.5604853  32.5138485  52.2077146  41.4746026  32.3657365
  51.7520360  39.6413648  31.3914176  51.2714838  38.7104202  31.6922680
  50.9689202  40.2394849  30.2121259  51.1856483  39.6628254  29.3129079
  49.4676909  40.1988432  30.4932894  49.2501163  40.7757132  31.3921676
  48.9275782  40.6260917  29.6484012  49.1528624  39.1656883  30.6401719
  51.3792176  41.5965741  29.9928297  50.8868435  41.9645394  29.2554225
  53.1599380  39.2644142  30.9471416  54.1449022  39.9415738  31.2576226
  53.2439760  38.1581886  30.2173830  52.4113342  37.6147671  30.0399008
  54.5054307  37.6739139  29.6927346  55.2641602  38.4517836  29.7784516
  54.9711907  36.4533185  30.4698675  55.2352128  36.7423188  31.4871533
  54.1902231  35.6935146  30.4996612  56.1765671  35.8026696  29.8853535
  56.0979825  34.7614794  28.9850861  57.3172727  34.3956559  28.6329122
  57.4702752  33.5847474  27.9207910  58.1831556  35.1595504  29.2765969
  59.1893046  35.1044254  29.2078564  57.4948446  36.0508674  30.0630789
  58.0384098  36.7740459  30.6710683  54.3367487  37.3381822  28.2176032
  53.3223957  36.7486880  27.8217110  55.3229646  37.7389650  27.4113276
  56.0174470  38.3570735  27.8059610  55.4386112  37.3781932  26.0009977
  54.7576569  36.5549682  25.7848937  55.0895147  38.5583557  25.0814575
  54.7632936  38.1434666  24.1277562  54.2633987  39.0987745  25.5436046
  56.2518058  39.5122717  24.8481986  56.6953399  39.7363288  25.8183413
  56.9828020  38.9965712  24.2254631  55.8291660  40.8220205  24.1636580
  55.2796090  41.4224125  24.8886514  56.7312693  41.3539812  23.8614548
  54.9869058  40.6225430  22.9866429  54.5380084  39.7239923  22.8808262
  54.7775823  41.5515110  22.0546589  55.3608703  42.7380448  22.1502184
  55.9665448  42.9380055  22.9333366  55.1969231  43.4366557  21.4394697
  53.9847426  41.2942715  21.0217450  53.5394965  40.3910968  20.9434415
  53.8303263  42.0028818  20.3188042  56.8635592  36.9039449  25.7437392
  57.6719481  36.7796988  26.6636225  57.1923471  36.6437542  24.4811125
  56.4922937  36.6182437  23.7535317  58.5656234  36.2745621  24.1357903
  59.0328653  35.7694322  24.9811470  58.5884490  35.3375021  22.9358934
  57.8975666  35.7457907  22.1982748  59.5947059  35.3157175  22.5174768
  58.1603254  33.9207695  23.3033344  57.4523429  33.7567196  24.3320907
  58.5509007  32.9736368  22.5819610  59.3989970  37.5390472  23.9150670
  59.9266192  37.8188283  22.8356406  59.4901630  38.3219721  24.9907131
  58.9968197  38.0821632  25.8387718  60.2527667  39.5583221  24.9636339
  59.9382283  40.1672500  24.1160658  60.0266554  40.3584791  26.2528478
  60.2790003  39.7184816  27.0983207  60.6934483  41.2206201  26.2387003
  58.6829390  40.8015610  26.3792624  58.5846123  41.2961651  27.1961458
  61.7392762  39.3114305  24.7806996  62.4572184  40.2417537  24.4019401
  62.2261691  38.0981282  25.0473639  61.6527466  37.3485843  25.4071831
  63.6588331  37.8668720  24.9088164  64.2151226  38.6607297  25.4072451
  64.0369955  36.5321075  25.5458705  63.2882712  35.8402657  25.1600388
  65.0292110  36.2007259  25.2396113  63.9595259  36.5665811  27.0846493
  62.9728868  36.9320414  27.3693999  64.1878278  35.1791973  27.6995438
  65.1745179  34.8132533  27.4155957  64.1249724  35.2477221  28.7855707
  63.4263807  34.4897902  27.3348294  64.9276372  37.5998957  27.6764959
  64.6781478  38.5910228  27.2976537  64.8447486  37.5954452  28.7633312
  65.9485876  37.3481678  27.3894552  64.0884504  37.9393558  23.4489181
  65.1429064  38.5047742  23.1336949  63.2803198  37.3914772  22.5401376
  62.4881434  36.8262419  22.8104428  63.5662347  37.5471476  21.1163450
  64.5788553  37.2066717  20.9000702  62.5834811  36.7157231  20.2886169
  61.5856504  37.1479380  20.3636066  62.9251220  36.7688213  19.2549042
  62.5406516  35.2589061  20.7350247  63.4884820  34.4982876  20.4119103
  61.5725229  34.8847209  21.4419704  63.5076454  39.0144254  20.7143532
  64.4492814  39.5434692  20.1097401  62.4014760  39.6898502  21.0527918
  61.6102190  39.2070327  21.4539138  62.2859335  41.1254491  20.8091945
  62.2782464  41.3225322  19.7371878  60.9851880  41.6571696  21.4132478
  61.0693720  41.3856413  22.4655238  60.9744041  42.7429879  21.3184729
  59.6947585  41.0858069  20.8439717  59.6898633  40.0065341  20.9964411
  58.4777108  41.7034741  21.5346035  58.4816684  42.7827552  21.3821719
  57.5661529  41.2807338  21.1121659  58.5168068  41.4877111  22.6023198
  59.6615318  41.3097479  19.3393719  60.5140259  40.8109308  18.8783571
  58.7374235  40.9007022  18.9309521  59.7093098  42.3782660  19.1294067
  63.4732010  41.8879205  21.3834752  63.9375804  42.8724954  20.7957022
  63.9683388  41.4599623  22.5436202  63.5740135  40.6708575  23.0354744
  65.0581508  42.1899423  23.1723871  64.7791690  43.2357028  23.3014351
  65.3703757  41.5948171  24.5450199  64.4682967  41.8230105  25.1127174
  65.4905983  40.5138000  24.4739671  66.5814056  42.1954239  25.2522072
  67.4247412  42.2117461  24.5618309  66.2767658  43.6098646  25.7119431
  65.4337756  43.5942972  26.4027571  67.1502171  44.0251102  26.2146902
  66.0272686  44.2271646  24.8489296  67.0486544  41.3043223  26.4002924
  67.3244587  40.3242257  26.0111368  67.9128620  41.7585759  26.8849575
  66.2427365  41.1930055  27.1256916  66.2948788  42.2001457  22.2840782
  66.9495455  43.2400638  22.1412747  66.6185486  41.0668217  21.6523619
  66.0911892  40.2135439  21.7702959  67.8211682  41.0291641  20.8219921
  68.6329056  41.5500324  21.3298090  68.2567425  39.5837447  20.5570344
  67.4893231  39.1219664  19.9358037  69.1993673  39.6091351  20.0103043
  68.4325029  38.7714600  21.8343769  67.8232672  37.6805440  21.9228091
  69.1631608  39.2162969  22.7489370  67.6119897  41.7777993  19.5045876
  68.5419734  42.4275080  19.0044407  66.4000488  41.6982207  18.9264809
  65.6860213  41.0940074  19.3075195  66.0996107  42.4407000  17.6989751
  66.7996753  42.1499135  16.9157434  64.6756087  42.1478160  17.2161571
  64.0085360  42.4106658  18.0371464  64.4907325  42.8117324  16.3716834
  64.4188720  40.7110946  16.7958418  65.0840601  40.4677137  15.9673544
  64.6375865  40.0579715  17.6406473  62.9719305  40.5111077  16.3607931
  62.3301813  41.1293593  16.9885048  62.8735334  40.8245363  15.3214761
  62.5538467  39.0434539  16.4928892  63.2310835  38.4478582  15.8807482
  62.6648610  38.7584141  17.5390858  61.1463567  38.8004022  16.0578320
  61.0433829  39.0640589  15.0883057  60.9250376  37.8208708  16.1657023
  60.5186205  39.3518769  16.6252137  66.2735490  43.9383850  17.8954291
  66.7117229  44.6371567  16.9787658  65.9227902  44.4491735  19.0727330
  65.4178916  43.8976447  19.7516975  66.2018490  45.8433672  19.3859870
  65.9000514  46.4609733  18.5400673  65.4016938  46.2787837  20.6213594
  65.6994090  45.6754221  21.4789260  65.5995534  47.3299560  20.8310943
  64.3370933  46.1406165  20.4325873  67.6903885  46.0709392  19.6049485
  68.2999155  46.9151204  18.9376848  68.2777550  45.3343177  20.5396476
  67.7204921  44.6862646  21.0777783  69.6854804  45.4523793  20.8522123
  69.9613523  46.5051139  20.9133980  70.0012128  44.7815906  22.2022233
  69.5540367  43.7881609  22.1671510  71.0859455  44.6894752  22.2567198
  69.4883629  45.5300845  23.4416291  70.0070298  46.4874578  23.4918478
  68.4202728  45.7026022  23.3092541  69.7270685  44.7394158  24.7658401
  69.5020516  45.4035138  25.6003700  69.0412676  43.8923369  24.7811290
  71.0969434  44.2379242  24.9204041  71.2409301  43.2507838  24.7625400
  72.1463862  44.9881734  25.2540025  72.0009510  46.2938004  25.4679855
  71.0892873  46.7188708  25.3769662  72.8029232  46.8534699  25.7203946
  73.3496739  44.4321871  25.3709895  73.4633478  43.4422117  25.2062863
  74.1437815  45.0027150  25.6239514  70.5234731  44.8220861  19.7419295
  71.7523266  44.7583529  19.8404439  69.6587887  44.3298247  18.3307762
  69.6417672  46.4225530  17.3451461  69.4405147  47.3555095  17.0147087
  70.8732178  45.7970821  16.9223083  71.4866832  45.5594517  17.7913832
  70.5907244  44.5059276  16.1564661  69.9848530  44.7289378  15.2782370
  71.5324258  44.0555142  15.8427358  70.0530305  43.8107007  16.8011707
  71.6683850  46.7928552  16.0819012  71.4816794  48.0116503  16.2037268
  70.4505501  49.6262032  17.1423649  54.7117320  55.0117681  48.4985381
  54.2367616  56.0956493  48.2143802  54.2807110  57.1874856  49.0583061
  53.5309146  56.3014216  46.8876818  54.8721847  57.1405858  50.3844298
  53.1920920  55.1967169  46.1571588  53.2886949  57.6023162  46.4556312
  55.9340731  58.1968684  50.5698133  52.5865140  55.4087302  44.9478025
  52.6959812  57.8009963  45.2121467  55.8534137  59.4386326  49.9317971
  57.0183154  57.9577818  51.4214789  52.3454533  56.6948203  44.4311973
  52.1983060  54.1760876  44.1330241  56.8629691  60.3912213  50.1091914
  58.0225916  58.9187008  51.5975552  51.6660217  56.9027335  43.0956870
  51.2638365  54.4646295  43.0448774  57.9754680  60.1449375  50.9273793
  51.5962942  55.6337011  42.2426478  50.3518143  53.4799698  42.6284522
  58.9454970  61.1369558  51.0578271  49.2938805  53.7937184  42.0826026
  50.8296742  52.0769647  42.6769143  60.2380337  60.7983336  51.6767437
  59.1087637  62.0144054  49.8784238  51.5848552  51.7505174  41.5547188
  50.1105775  50.9052455  42.9511189  60.9572395  62.1064400  52.0858132
  59.8415669  63.3085616  50.3110199  50.7614333  50.9437051  40.8399627
  49.7475334  50.4560013  41.6531183  49.8708504  50.1562506  44.2069304
  61.1544115  63.0320332  50.9443919  50.8981998  50.6604149  39.4872571
  48.7765884  49.6162997  41.0975484  61.7793827  64.2727288  51.3920963
  49.8879615  49.8733951  38.9417697  48.8439366  49.3627217  39.7205468
  53.8934033  58.0376877  48.7472911  54.0805794  57.2983592  51.1317329
  54.0805794  57.2983592  51.1317329  53.5616050  58.4603342  47.0875088
  52.5045988  58.8205206  44.8461986  54.9919903  59.6677106  49.2872169
  57.0830864  57.0012535  51.9606940  53.1123472  53.7426806  43.7009189
  53.1123472  53.7426806  43.7009189  56.7820021  61.3592426  49.5931481
  58.8626585  58.7047459  52.2747777  52.2240547  57.6680861  42.5363693
  52.2240547  57.6680861  42.5363693  52.5732401  55.4716687  41.7637697
  52.5732401  55.4716687  41.7637697  60.0688036  60.1760320  52.5678676
  60.0688036  60.1760320  52.5678676  58.1203277  62.2695270  49.4687879
  58.1203277  62.2695270  49.4687879  60.3532813  62.6154753  52.8514089
  60.3532813  62.6154753  52.8514089  59.2089876  63.8485117  51.0310350
  59.2089876  63.8485117  51.0310350  49.8215378  49.0794263  43.9878556
  49.8215378  49.0794263  43.9878556  49.8215378  49.0794263  43.9878556
  61.7738906  62.5976698  50.2602844  51.7441162  51.0313423  38.8898179
  47.9870069  49.1700785  41.7200115  62.1053926  64.1628083  52.4369120
  62.1053926  64.1628083  52.4369120  62.1053926  64.1628083  52.4369120
  49.9112238  49.6461002  37.8658102  48.0628033  48.7519727  39.2442697
  73.1024834  50.1926633  20.4543945  57.5969695  30.7647542  28.1280057
  71.5969695  41.7647542  19.1280057  69.5969695  27.7647542  46.1280057
  21.1982271  69.1242114  19.8317022  75.0181722   8.8256640  54.4932955
  80.8907443 103.5092680  43.7061695  80.5122047  90.0856049  34.2598757
  83.3695518  14.7547295  69.3713391  18.9056060  88.5156428  33.7298632
  65.0814963  49.7071316  92.7029393  38.9587879  72.4438744 104.4860588
  69.4306113  27.2702934  23.4364011  48.2165458  98.7660654  31.8508495
  43.9858024  23.6270292  71.4396225  96.4144195  48.1942965  30.2815618
  55.3411078  18.4415456  13.4080734  92.4523122  28.7030780  36.9954164
  54.6686579  24.7069547  34.0648311  33.0661333  39.3703062  49.5286699
  76.5039292  69.6146041  18.3377445  66.6413271  21.7086227  71.7679925
  14.5483504  51.7295202  41.0345056  38.9627491  50.9237230 102.5497361
   8.5502962  36.6016886  78.8701412  84.4028488  20.9736138  16.2817690
  36.3866995  76.5175729  22.2388458  57.8747170  89.8566505  20.8847958
  42.6897583  13.6243350  81.9649982  56.2126490  13.7681499  33.7871560
  90.1538170  64.6292883  11.9851751  83.6789923  21.8366961  93.5077601
  15.6984192   6.7909149  58.4017888  63.9094451  91.4300829  41.3152816
  26.0731093  80.9224646  36.7118698  17.9723999  30.7849513  59.4003521
  36.4478847  69.7989908  99.0265927  42.7016515   5.8935181  39.0954235
  75.7927305  73.5441867  95.6633309  76.5039288  46.6208168  58.1641531
  94.6257199  85.9725480  67.2409335   3.8547871  20.7622744  34.8015920
   7.0042898  71.5314567  54.6257893  92.0194487  89.6004902  78.6522177
  44.6558797   9.0494809  68.1628424  54.8251779  15.9624332  58.1641531
  52.4675332  18.3150123  84.0832695  13.9046217  74.5587608  87.7102465
  22.5685172   5.8345889  75.7864666  22.7136360  79.7242292  69.7677386
  92.4523121  97.6844410  50.2708854  26.0713548  97.8101875  37.5595182
  61.7995758  22.8178220  88.2282390  32.2140155  92.2914800  70.9932621
  99.6700183  43.9038966  55.9178208 103.0701144  22.6820461  43.5605537
  53.0569176   9.8713172  43.5570312  98.0300079  75.1761506  78.8980280
  58.9929813  37.2177477 109.2655849  58.9143444  36.8837341 110.1591607
  59.8139480  37.7099245 109.2647321  65.3480818  50.9631525 112.2692345
  64.6968798  51.5485606 111.8826358  66.1425181  51.4937720 112.3287382
  59.2736445  48.0520662 112.6679479  60.0467321  47.5049649 112.5292355
  59.6261844  48.9164912 112.8793940  61.6102723  44.2113328 110.2997929
  61.8628244  43.6894850 109.5381392  60.6727282  44.0479474 110.4024612
  66.8256083  48.6521957 112.8061329  66.1901916  48.7256584 113.5182233
  66.4953489  49.2415556 112.1280408  61.3299012  46.1141434 112.5022304
  61.2135270  45.4386338 113.1703388  61.4401271  45.6273808 111.6854457
  63.6730553  45.5751581 116.2068993  63.3088760  45.0482202 116.9181914
  64.5297668  45.1850051 116.0335478  63.3136040  40.6041481 111.2030342
  63.4810442  41.4721718 111.5700813  63.1233209  40.7668763 110.2791631
  63.2925260  43.0599139 112.1877008  63.1724886  43.5056189 113.0262489
  62.5977849  43.4084456 111.6290546  68.9910327  43.5320612 113.0157342
  69.9028183  43.7647999 112.8405040  68.4819974  44.1157656 112.4532421
  62.0876757  44.3743991 114.4810574  62.7900800  44.8265034 114.9484500
  61.7557385  43.7327810 115.1090467  56.7799919  48.7060371 115.1300604
  57.2924439  49.5003622 115.2806169  57.4322632  48.0086662 115.0634206
  66.6413268  44.7024106 111.5944008  66.1259891  45.4728711 111.8332395
  66.3690576  44.0289243 112.2177069  71.6147542  47.4556461 113.5297181
  70.8376985  47.1167620 113.0852343  72.2939023  47.4609084 112.8552146
  66.4299571  42.5751198 113.4203789  66.1249706  42.8897348 114.2713932
  67.3830013  42.6532618 113.4631122  64.8746003  48.7341422 115.0696743
  64.3467364  47.9994181 114.7569980  64.3733505  49.5116098 114.8236711
  59.9334317  41.4265549 111.4499240  59.0971630  41.7640236 111.7708515
  59.7939087  41.2914529 110.5126377  63.0198603  46.5521632 108.0731716
  62.1125665  46.3210885 108.2722865  63.5169635  45.7559251 108.2605698
  65.9266682  55.2619139 110.9928402  65.2528381  55.5650836 111.6013360
  66.3132504  56.0648220 110.6433859  65.9260186  44.1575686 115.6128752
  66.6732005  44.6697083 115.3035874  66.1951776  43.8359739 116.4733145
  64.1986836  46.6534227 112.5955706  63.2898056  46.3693260 112.6928176
  64.2281920  47.0733305 111.7359013  63.8962924  48.1942971 109.9343785
  63.4582354  47.4778829 109.4749422  64.6373365  48.4219085 109.3728876
  68.0174152  47.0527352 109.5275842  67.4003322  46.3274180 109.4308895
  67.5490640  47.8136712 109.1842917  59.8072698  41.2712777 108.6497147
  58.9302164  41.1501577 108.2859393  60.2830451  40.4798855 108.3976035
  61.3649203  39.3316321 112.7818148  62.0857566  39.7097574 112.2781865
  60.7414508  40.0505198 112.8853126  65.5080326  40.0361470 113.7176480
  65.7243941  40.9186108 113.4165308  65.0274393  39.6447683 112.9882122
  60.4842885  50.4518244 113.7031572  60.6331006  51.1353708 113.0498244
  61.2909329  50.4323334 114.2181027  58.2395518  46.4783422 114.7092641
  57.9941560  45.5745752 114.9072851  58.4091433  46.4800572 113.7672119
  57.5091166  42.2111779 112.2078802  56.8160411  42.2856134 111.5518838
  57.2642918  41.4472123 112.7300319  63.9838291  52.9466374 111.1743319
  63.4112258  53.5656562 110.7213791  64.5571085  53.4965736 111.7083241
  69.8323567  52.5469395 109.2655849  69.7537199  52.2129258 110.1591607
  70.6533234  53.0391163 109.2647321  64.3685089  44.2827187 108.5159372
  65.3144194  44.1533395 108.5847790  63.9899334  43.5441849 108.9928800
  62.5528007  42.2077164 108.4514257  61.6459462  41.9110276 108.5276970
  62.8303988  41.9106982 107.5848543  61.3226791  39.0664099 108.5926236
  62.1845955  39.3918997 108.8522053  61.5077135  38.2795595 108.0799302
  68.2584306  40.0992716 114.7917807  67.3710161  40.3842366 114.5738002
  68.6738295  39.9386479 113.9445084  67.4027519  49.8637390 108.8865827
  68.1063369  50.0687393 109.5023483  66.6790168  50.4314152 109.1514911
  68.2325329  45.6147252 115.0068097  68.1760531  46.0715803 114.1675730
  68.7853672  44.8537936 114.8290940  72.0430135  41.4036983 115.8318217
  71.7867070  41.0033619 116.6626425  71.4183003  42.1180777 115.7068356
  69.3114217  50.3019919 110.9364287  70.1459821  49.8701118 110.7541762
  69.1498560  50.1301933 111.8641182  68.9660109  46.8052033 112.3020627
  68.9108913  46.6396304 111.3609071  68.3406164  47.5128066 112.4582816
  70.6466452  56.6004694 108.6497147  69.7695918  56.4793495 108.2859393
  71.1224205  55.8090772 108.3976035  72.1620546  54.3956016 108.5926236
  73.0239710  54.7210915 108.8522053  72.3470890  53.6087512 108.0799302
  58.9929814  14.2239600  95.9901156  58.9143446  13.8899463  96.8836913
  59.8139481  14.7161368  95.9892628  65.3480819  27.9693648  98.9937651
  64.6968799  28.5547728  98.6071665  66.1425182  28.4999843  99.0532689
  59.2736446  25.0582785  99.3924786  60.0467322  24.5111772  99.2537661
  59.6261845  25.9227034  99.6039247  61.6102724  21.2175451  97.0243235
  61.8628245  20.6956972  96.2626698  60.6727283  21.0541596  97.1269919
  66.8256084  25.6584080  99.5306635  66.1901917  25.7318706 100.2427540
  66.4953491  26.2477678  98.8525715  61.3299013  23.1203557  99.2267610
  61.2135271  22.4448460  99.8948695  61.4401273  22.6335931  98.4099763
  63.6730554  22.5813704 102.9314300  63.3088761  22.0544325 103.6427221
  64.5297670  22.1912173 102.7580785  63.3136041  17.6103604  97.9275648
  63.4810443  18.4783840  98.2946119  63.1233210  17.7730885  97.0036937
  63.2925262  20.0661261  98.9122315  63.1724887  20.5118312  99.7507795
  62.5977850  20.4146579  98.3535853  61.0532154  32.8364903 102.5612446
  60.9756183  33.7872728 102.6400927  60.4493797  32.4910775 103.2187373
  68.9910328  20.5382734  99.7402649  69.9028184  20.7710121  99.5650347
  68.4819975  21.1219779  99.1777728  71.4769142  26.4562991 104.4860594
  70.7920180  26.8361892 103.9357628  71.5612991  27.0658317 105.2192542
  63.1507872  25.2582961 104.3966316  63.6146218  25.5370664 103.6070938
  62.8864670  24.3566406 104.2139406  62.0876758  21.3806113 101.2055881
  62.7900801  21.8327157 101.6729807  61.7557387  20.7389932 101.8335774
  63.3270523  28.1947056 101.2817986  63.1916197  29.0398592 101.7102834
  63.8680335  28.3966334 100.5183920  56.7799920  25.7122494 101.8545911
  57.2924441  26.5065744 102.0051476  57.4322633  25.0148784 101.7879513
  58.5894805  28.8288250 103.9368664  58.7661433  29.7506215 103.7489648
  59.3851638  28.5146669 104.3663044  66.6413269  21.7086229  98.3189315
  66.1259892  22.4790834  98.5577702  66.3690577  21.0351365  98.9422376
  71.6147543  24.4618584 100.2542488  70.8376986  24.1229743  99.8097650
  72.2939024  24.4671207  99.5797453  66.4299572  19.5813321 100.1449096
  66.1249708  19.8959470 100.9959239  67.3830014  19.6594741 100.1876429
  64.8746004  25.7403544 101.7942050  64.3467366  25.0056304 101.4815287
  64.3733507  26.5178221 101.5482018  69.8538850  23.9352565 106.9109096
  69.1962524  24.6251826 106.9989225  70.6579249  24.3248997 107.2543082
  68.6644309  22.2896938 104.9613038  69.1776191  22.9226929 105.4634747
  69.3145533  21.6898133 104.5956398  59.9334319  18.4327672  98.1744546
  59.0971631  18.7702358  98.4953821  59.7939088  18.2976651  97.2371683
  63.0198604  23.5583755  94.7977023  62.1125666  23.3273008  94.9968172
  63.5169636  22.7621374  94.9851004  65.9266683  32.2681262  97.7173709
  65.2528382  32.5712959  98.3258667  66.3132505  33.0710342  97.3679166
  65.9260187  21.1637809 102.3374059  66.6732006  21.6759206 102.0281181
  66.1951777  20.8421861 103.1978452  64.1986838  23.6596349  99.3201013
  63.2898057  23.3755382  99.4173483  64.2281921  24.0795428  98.4604320
  69.4306105  27.2702939 103.0892180  68.9768432  26.4293849 103.1457371
  68.8000072  27.9064337 103.4266961  67.8739044  29.1079436 104.0241999
  68.1662019  29.6684493 103.3054364  68.3837665  29.4007997 104.7795158
  63.8962925  25.2005093  96.6589091  63.4582355  24.4840952  96.1994729
  64.6373366  25.4281208  96.0974183  62.8372669  29.8859787 105.1135452
  62.7948848  30.1120633 104.1843984  63.7535368  29.6523161 105.2621253
  72.0136040  23.4762290 102.7165410  71.8753939  23.6663886 101.7886599
  71.6572259  24.2381673 103.1733461  60.9538470  26.7622816 104.9097414
  61.7479069  26.2673136 104.7079989  60.2430163  26.2340679 104.5465120
  64.1257898  32.4360934  99.9320788  64.3009654  31.9648977 100.7466411
  63.4390686  33.0626700 100.1602049  65.0814961  26.7133440 105.9784089
  64.7464794  26.6734210 106.8741739  64.5818907  26.0478156 105.5054500
  68.0174153  24.0589475  96.2521149  67.4003324  23.3336303  96.1554202
  67.5490641  24.8198835  95.9088223  58.6918983  35.5850297 106.7060648
  58.9315582  36.2168821 107.3839667  57.8488180  35.2338337 106.9926007
  59.8072699  18.2774899  95.3742453  58.9302165  18.1563700  95.0104700
  60.2830452  17.4860977  95.1221342  63.2046845  31.3929419 109.1102152
  63.1317017  32.1984391 109.6221457  62.7624238  31.5921385 108.2850174
  62.9936625  30.6301189 102.6204974  62.2104147  31.1722870 102.7143198
  63.6929370  31.1475169 103.0199215  67.3863056  25.1967506 102.8377603
  66.4519334  25.3168969 102.6682307  67.5639724  24.2939973 102.5737612
  70.7735607  21.0384825 103.3727637  71.2396059  21.8712817 103.2987939
  71.2243108  20.5729807 104.0772895  68.8411838  27.3828647 100.3713789
  69.1171682  27.2685241 101.2807663  67.9716337  26.9846132 100.3325962
  65.4765902  31.6314998 104.0146602  65.6588297  30.8136653 104.4774355
  66.2998888  31.8482690 103.5771492  65.8108068  30.5583183 101.2761651
  66.3395834  30.0475637 100.6631813  66.0736287  30.2425713 102.1407184
  59.1663816  31.6098299 104.0359427  58.4974191  32.0944427 103.5523467
  59.0276685  31.8567520 104.9502805  66.4437472  31.5924018 107.6205767
  66.3188611  30.7913758 107.1116713  67.1016563  32.0870212 107.1319737
  68.5072380  29.3933039 109.2485317  67.5602715  29.2738390 109.1763644
  68.8555153  28.5055537 109.3311579  65.5118813  29.1885755 105.4489670
  65.3643776  28.2602462 105.6297240  66.3372307  29.2105845 104.9646745
  69.1152935  30.0114313 106.5354542  70.0399483  29.8057175 106.3978993
  68.9468238  29.7630715 107.4443884  61.3649205  16.3378443  99.5063455
  62.0857567  16.7159696  99.0027171  60.7414509  17.0567320  99.6098432
  65.5080328  17.0423592 100.4421787  65.7243942  17.9248230 100.1410615
  65.0274395  16.6509806  99.7127429  68.9048251  30.5299981 101.8916634
  69.0785129  29.9646403 101.1390486  69.3977143  31.3300876 101.7096124
  74.7587642  23.2936404 103.5106934  75.2018788  22.5443729 103.1126057
  73.8814153  23.2846540 103.1280666  69.8923424  29.8466745  98.9913532
  70.5874328  30.4673438  99.2100847  70.2346574  28.9962097  99.2665910
  71.7914847  27.2966451 100.5200863  72.3166171  27.6353724  99.7950183
  71.7037199  26.3613466 100.3363997  63.4755508  33.3638434 104.8796116
  63.0360498  32.8714813 105.5728973  64.2263625  32.8211402 104.6388191
  60.4842887  27.4580367 100.4276878  60.6331007  28.1415831  99.7743551
  61.2909330  27.4385457 100.9426334  58.2395520  23.4845544 101.4337947
  57.9941562  22.5807874 101.6318157  58.4091434  23.4862695 100.4917425
  57.5091167  19.2173902  98.9324109  56.8160412  19.2918257  98.2764145
  57.2642919  18.4534245  99.4545626  63.9838292  29.9528497  97.8988626
  63.4112259  30.5718684  97.4459098  64.5571086  30.5027859  98.4328548
  67.2035552  30.2365647  99.0297208  68.1366225  30.1711209  99.2330083
  67.1158765  31.0721914  98.5711741  69.8323569  29.5531517  95.9901156
  69.7537200  29.2191381  96.8836913  70.6533235  30.0453285  95.9892628
  64.3685091  21.2889310  95.2404678  65.3144195  21.1595518  95.3093096
  63.9899336  20.5503972  95.7174106  62.5528008  19.2139286  95.1759563
  61.6459463  18.9172399  95.2522277  62.8303989  18.9169104  94.3093850
  61.3226792  16.0726221  95.3171543  62.1845956  16.3981120  95.5767360
  61.5077137  15.2857717  94.8044608  68.2584307  17.1054838 101.5163114
  67.3710162  17.3904489 101.2983309  68.6738296  16.9448602 100.6690391
  56.2668557  31.6862589 106.6034559  56.1323025  30.9262990 106.0372557
  55.8500620  32.4103489 106.1363347  67.4027520  26.8699513  95.6111134
  68.1063371  27.0749515  96.2268789  66.6790169  27.4376275  95.8760217
  68.2325331  22.6209374 101.7313404  68.1760532  23.0777926 100.8921036
  68.7853673  21.8600059 101.5536247  72.0430137  18.4099106 102.5563524
  71.7867071  18.0095742 103.3871731  71.4183005  19.1242900 102.4313663
  59.4237683  32.5831906 106.8153001  59.3070067  33.5277339 106.7131691
  58.6030130  32.2805468 107.2038800  69.3114218  27.3082042  97.6609594
  70.1459822  26.8763241  97.4787069  69.1498561  27.1364056  98.5886488
  68.9660110  23.8114155  99.0265933  68.9108914  23.6458427  98.0854377
  68.3406165  24.5190188  99.1828123  62.2045799  31.9891155 106.6919008
  61.2541430  31.9893016 106.5783381  62.5078286  31.2423889 106.1755043
  77.9398493  37.8251693 107.7564771  78.5776903  37.7058441 107.0528111
  77.8219336  38.7732537 107.8152723  74.7488199  37.7779121 107.6926295
  74.4106711  37.6620186 106.8046830  75.6177967  37.3770286 107.6727301
  70.6075015  39.6314598 103.6823186  70.0439880  39.5404535 102.9139474
  70.4927410  38.8114502 104.1625679  68.1539447  41.1265789 106.5207407
  68.9460739  40.7856614 106.1053706  68.3936097  41.2360764 107.4409560
  76.1874574  43.2985565  98.9937651  75.5362553  43.8839646  98.6071665
  76.9818936  43.8291760  99.0532689  70.1130201  40.3874703  99.3924786
  70.8861077  39.8403690  99.2537661  70.4655600  41.2518952  99.6039247
  71.9515243  41.7151085 112.5991685  71.6605109  42.6196716 112.4838351
  72.5872228  41.7567612 113.3135754  72.8771450  39.0927933 109.1893044
  73.4735022  38.8683956 108.4750007  72.9346422  38.3512679 109.7918492
  72.4496479  36.5467369  97.0243235  72.7021999  36.0248890  96.2626698
  71.5121038  36.3833514  97.1269919  77.4939761  35.5503147 104.8317979
  78.2802851  35.1322570 104.4808396  77.7578466  36.4549239 104.9999627
  77.6649839  40.9875997  99.5306635  77.0295672  41.0610624 100.2427540
  77.3347245  41.5769596  98.8525715  72.1692767  38.4495475  99.2267610
  72.0529025  37.7740378  99.8948695  72.2795027  37.9627849  98.4099763
  74.5124308  37.9105622 102.9314300  74.1482516  37.3836243 103.6427221
  75.3691424  37.5204091 102.7580785  74.1529795  32.9395521  97.9275648
  74.3204198  33.8075758  98.2946119  73.9626964  33.1022803  97.0036937
  76.9105128  41.4012500 109.5941479  76.6105852  42.3037539 109.4857286
  76.5656188  41.1344684 110.4462631  70.3617610  37.8526297 105.6278183
  69.4368106  37.7202511 105.8355875  70.6102023  38.6320516 106.1248125
  74.1319016  35.3953179  98.9122315  74.0118641  35.8410230  99.7507795
  73.4371605  35.7438497  98.3535853  67.7226421  37.4959571 106.4621972
  67.8518802  37.7494050 107.3761384  67.0423872  38.0887279 106.1426627
  71.8925908  48.1656821 102.5612446  71.8149938  49.1164646 102.6400927
  71.2887552  47.8202693 103.2187373  79.8304082  35.8674652  99.7402649
  80.7421938  36.1002039  99.5650347  79.3213729  36.4511696  99.1777728
  72.6389510  38.1470139 114.7791780  73.3804195  38.6855183 114.5026604
  71.9326496  38.7736428 114.9363332  74.4675920  35.2271887 110.7497499
  75.3137115  35.6511300 110.8932148  74.4074558  34.5705511 111.4436062
  78.4373665  40.8500471 107.1316230  77.8082527  41.0146185 106.4292298
  78.0499327  41.2642080 107.9027195  82.3162897  41.7854908 104.4860594
  81.6313935  42.1653810 103.9357628  82.4006746  42.3950235 105.2192542
  73.9901626  40.5874879 104.3966316  74.4539972  40.8662582 103.6070938
  73.7258425  39.6858323 104.2139406  70.8825708  40.1346360 107.3346079
  71.4527065  40.5633629 106.6963563  71.4733819  39.8528945 108.0330265
  72.9270513  36.7098031 101.2055881  73.6294556  37.1619075 101.6729807
  72.5951141  36.0681850 101.8335774  66.6695846  34.9681584 106.5073014
  65.8794900  35.2239112 106.0313125  67.1607094  35.7829922 106.6125055
  80.6859656  42.3086823 109.2578295  81.5077100  41.9067010 108.9760977
  80.6822059  42.2055057 110.2094411  68.6210592  35.3326163 103.4656491
  67.8241755  35.4444857 103.9839987  68.3936184  35.6712815 102.5997382
  74.4516259  41.8570866 111.4139006  74.5160692  42.3191273 112.2497177
  73.7427183  41.2268231 111.5421315  64.9533549  35.2212074 108.9388005
  65.2041588  36.1059084 109.2045581  65.4893098  35.0416676 108.1663097
  74.1664277  43.5238974 101.2817986  74.0309952  44.3690509 101.7102834
  74.7074090  43.7258251 100.5183920  67.6193675  41.0414412 101.8545911
  68.1318195  41.8357662 102.0051476  68.2716387  40.3440702 101.7879513
  69.4288559  44.1580168 103.9368664  69.6055188  45.0798133 103.7489648
  70.2245393  43.8438587 104.3663044  70.5519875  45.6758342 109.9379007
  71.1027300  45.5475405 109.1656000  69.7131351  45.9753231 109.5873899
  74.3487046  41.9409470 114.2823238  74.8815383  41.1797758 114.0522546
  73.8201127  41.6483121 115.0247392  65.5842591  39.3703066 102.6305482
  66.4217813  39.7800074 102.4139189  65.7620859  38.4302508 102.6005675
  77.4807023  37.0378147  98.3189315  76.9653647  37.8082751  98.5577702
  77.2084332  36.3643283  98.9422376  75.0654134  31.8827847 103.3774553
  74.2095731  31.4934698 103.1980192  75.4781086  31.9619808 102.5174338
  72.8396167  29.5012920 106.7832294  73.7049164  29.3055729 106.4238184
  72.9073676  29.2723272 107.7101651  82.4541298  39.7910501 100.2542488
  81.6770740  39.4521661  99.8097650  83.1332779  39.7963124  99.5797453
  77.2693327  34.9105239 100.1449096  76.9643462  35.2251388 100.9959239
  78.2223769  34.9886659 100.1876429  75.7139758  41.0695462 101.7942050
  75.1861120  40.3348222 101.4815287  75.2127261  41.8470138 101.5482018
  80.6932604  39.2644483 106.9109096  80.0356279  39.9543744 106.9989225
  81.4973004  39.6540914 107.2543082  70.4458486  31.7315128 104.1548661
  71.0202238  31.5090310 103.4221854  71.0329469  31.8003823 104.9077263
  79.5038063  37.6188855 104.9613038  80.0169945  38.2518847 105.4634747
  80.1539287  37.0190051 104.5956398  70.7728073  33.7619589  98.1744546
  69.9365385  34.0994276  98.4953821  70.6332843  33.6268569  97.2371683
  72.7481154  28.6056377 102.8823731  72.0945566  28.2905394 102.2580345
  72.7061628  27.9832118 103.6083554  73.8592359  38.8875672  94.7977023
  72.9519420  38.6564926  94.9968172  74.3563391  38.0913292  94.9851004
  76.7660438  47.5973179  97.7173709  76.0922136  47.9004876  98.3258667
  77.1526259  48.4002260  97.3679166  75.9818894  35.0938311 107.2071378
  75.0641456  35.3153258 107.0493066  76.3979038  35.1684621 106.3483086
  76.7653942  36.4929726 102.3374059  77.5125761  37.0051124 102.0281181
  77.0345531  36.1713779 103.1978452  75.0380592  38.9888267  99.3201013
  74.1291811  38.7047300  99.4173483  75.0675676  39.4087346  98.4604320
  80.2699859  42.5994857 103.0892180  79.8162187  41.7585767 103.1457371
  79.6393826  43.2356255 103.4266961  79.2132779  33.5286843 104.3192848
  78.4755536  33.0164229 104.6503090  79.4659553  33.0887224 103.5076125
  78.7132799  44.4371353 104.0241999  79.0055773  44.9976410 103.3054364
  79.2231419  44.7299914 104.7795158  65.6068762  36.7093781 103.3016215
  65.4093162  36.1163142 102.5767282  65.0515426  36.4045991 104.0192154
  73.5865486  36.6016888 105.4210808  73.6414096  35.6490724 105.3453285
  72.7756688  36.7576327 105.9052107  74.7356680  40.5297011  96.6589091
  74.2976110  39.8132870  96.1994729  75.4767121  40.7573126  96.0974183
  71.5257846  35.2193948 103.1801187  70.7125712  35.5188118 103.5866379
  72.0216840  34.8249636 103.8975669  73.6766424  45.2151704 105.1135452
  73.6342603  45.4412551 104.1843984  74.5929123  44.9815079 105.2621253
  82.8529795  38.8054208 102.7165410  82.7147693  38.9955804 101.7886599
  82.4966013  39.5673591 103.1733461  71.0171921  32.7912303 108.7962422
  71.6571300  32.6501062 108.0985385  70.1849451  32.5046816 108.4201024
  71.7932225  42.0914733 104.9097414  72.5872823  41.5965054 104.7079989
  71.0823917  41.5632597 104.5465120  76.6127069  44.4732829 109.2609782
  76.6664091  45.0423765 110.0287498  75.7441851  44.6434714 108.8963819
  68.1014988  36.2357815 100.9857167  67.1712576  36.1742271 101.2027129
  68.1972460  35.7133768 100.1893808  68.0200537  32.7612628 103.5735409
  68.2807355  33.6757961 103.4644569  68.8417710  32.2937071 103.7232022
  69.4925463  34.1750385 110.7434233  70.1648516  33.9667747 110.0946882
  68.6655249  33.9772471 110.3039466  75.5715169  38.6393091 110.8196714
  76.5007229  38.7904251 110.6465681  75.1506199  38.7277112 109.9645360
  74.3703501  42.6643755 108.5895252  74.2314586  42.2962540 109.4621190
  73.5818097  43.1791395 108.4179209  74.9651653  47.7652852  99.9320788
  75.1403408  47.2940895 100.7466411  74.2784441  48.3918618 100.1602049
  75.9208716  42.0425358 105.9784089  75.5858548  42.0026128 106.8741739
  75.4212662  41.3770074 105.5054500  69.8952960  37.4492988 111.5036670
  69.7572758  36.7173227 112.1048210  70.8057883  37.3601888 111.2220858
  78.8567907  39.3881392  96.2521149  78.2397078  38.6628221  96.1554202
  78.3884396  40.1490753  95.9088223  72.5235260  37.1612947 110.9920350
  73.2334879  36.5206140 110.9506969  72.4804569  37.4125842 111.9146531
  71.2364194  34.1478165 112.8115990  70.7001551  33.6968904 113.4637586
  70.6480903  34.2824074 112.0686454  69.5312738  50.9142215 106.7060648
  69.7709336  51.5460739 107.3839667  68.6881934  50.5630255 106.9926007
  70.6466453  33.6066817  95.3742453  69.7695920  33.4855618  95.0104700
  71.1224206  32.8152895  95.1221342  62.1668594  38.3943977 105.4683960
  62.8539633  38.0805707 104.8804976  62.0116722  39.2985341 105.1951212
  66.9703316  33.2834173 109.8968984  66.8861504  32.6759843 109.1619394
  66.1486022  33.7743191 109.8978480  74.0440600  46.7221337 109.1102152
  73.9710771  47.5276309 109.6221457  73.6017993  46.9213303 108.2850174
  73.8330379  45.9593107 102.6204974  73.0497901  46.5014787 102.7143198
  74.5323125  46.4767087 103.0199215  77.1427030  31.7687737 105.2639179
  77.6395729  31.0157699 104.9440249  76.3714011  31.8052053 104.6982388
  76.5039283  46.6208171 111.2660311  77.2167256  47.2555636 111.1936212
  76.0129312  46.7172037 110.4500313  78.2256810  40.5259424 102.8377603
  77.2913089  40.6460886 102.6682307  78.4033479  39.6231891 102.5737612
  73.7261998  33.9105120 104.9910864  73.3559786  33.3576160 105.6791769
  74.2221091  33.3063253 104.4385864  81.6129362  36.3676743 103.3727637
  82.0789814  37.2004735 103.2987939  82.0636862  35.9021725 104.0772895
  71.5551197  44.3702615 112.0865882  72.2560656  45.0039098 112.2395276
  71.0846312  44.7117346 111.3261521  79.6805593  42.7120564 100.3713789
  79.9565437  42.5977159 101.2807663  78.8110091  42.3138049 100.3325962
  76.3159657  46.9606915 104.0146602  76.4982051  46.1428571 104.4774355
  77.1392643  47.1774607 103.5771492  76.6501822  45.8875100 101.2761651
  77.1789589  45.3767555 100.6631813  76.9130042  45.5717631 102.1407184
  67.1518915  43.9038970 109.0196984  67.7372352  43.1582658 109.1524889
  66.9543753  44.2142926 109.9033648  70.0057570  46.9390217 104.0359427
  69.3367945  47.4236345 103.5523467  69.8670440  47.1859437 104.9502805
  61.7436570  36.4744570 107.7401428  61.7820669  35.9408161 108.5338546
  61.2376862  35.9479775 107.1212405  74.1462839  48.9733961 110.6342085
  74.6981147  49.1365582 111.3991170  74.4869032  49.5638398 109.9622110
  69.1227332  31.3209110 111.2363970  69.1868658  32.1823941 110.8241368
  69.0594452  30.7083112 110.5036328  65.3745147  35.2008672 100.8155359
  65.6698588  34.2919350 100.7622413  64.4733183  35.1796411 100.4936361
  77.2831226  46.9215936 107.6205767  77.1582365  46.1205676 107.1116713
  77.9410317  47.4162129 107.1319737  68.9039394  33.2764669 106.7982908
  68.1825980  33.8900636 106.6590381  69.6932650  33.8122433 106.7199553
  79.3466134  44.7224956 109.2485317  78.3996470  44.6030307 109.1763644
  79.6948908  43.8347454 109.3311579  67.1032989  32.8822770 100.9394684
  66.7745695  32.0020149 100.7569790  67.4572360  32.8270438 101.8271073
  76.3512568  44.5177672 105.4489670  76.2037530  43.5894380 105.6297240
  77.1766061  44.5397763 104.9646745  70.2174812  33.1695739 101.3070162
  70.5570884  33.6981661 100.5848770  70.6646932  33.5076146 102.0828728
  79.9546690  45.3406231 106.5354542  80.8793237  45.1349092 106.3978993
  79.7861993  45.0922632 107.4443884  72.2042959  31.6670361  99.5063455
  72.9251322  32.0451614  99.0027171  71.5808263  32.3859238  99.6098432
  76.3474082  32.3715510 100.4421787  76.5637696  33.2540148 100.1410615
  75.8668149  31.9801723  99.7127429  71.0873303  35.3301223 107.0192531
  70.9417884  35.6441526 107.9116813  70.6098507  35.9486124 106.4663430
  72.9469686  32.3203771 107.0673421  72.9331255  31.4244865 106.7305719
  73.6642114  32.3274435 107.7011707  74.7995817  32.7541111 109.1126548
  74.5413595  33.6758182 109.1110879  74.2680857  32.3571546 109.8027013
  79.7442006  45.8591899 101.8916634  79.9178883  45.2938321 101.1390486
  80.2370897  46.6592793 101.7096124  65.5618966  37.8706568 109.9580193
  65.0172434  38.6466376 110.0900467  66.4398315  38.2177372 109.7999314
  72.3506582  31.2018152 102.3360991  72.4722493  30.2734798 102.5351879
  72.0608625  31.2156838 101.4239307  75.2197773  28.8873062 105.4727711
  75.2419469  28.9512395 104.5179691  75.6365832  28.0477571 105.6668217
  85.5981397  38.6228322 103.5106934  86.0412543  37.8735647 103.1126057
  84.7207907  38.6138458 103.1280666  80.7317178  45.1758663  98.9913532
  81.4268083  45.7965356  99.2100847  81.0740328  44.3254014  99.2665910
  66.3484987  36.9976464 112.8510349  65.6066723  37.1459099 113.4374980
  66.0277732  37.2584730 111.9877099  82.6308601  42.6258369 100.5200863
  83.1559925  42.9645641  99.7950183  82.5430954  41.6905384 100.3363997
  74.3149262  48.6930352 104.8796116  73.8754252  48.2006730 105.5728973
  75.0657379  48.1503319 104.6388191  66.7941601  44.8841893 104.8820744
  67.6199621  44.5845665 104.5019388  66.4435653  44.1149515 105.3310533
  71.7623134  44.2368361 106.9518418  71.1403144  43.5739066 106.6520646
  72.4328001  44.2629493 106.2692065  64.9950206  42.8028219 105.8409678
  64.1582114  42.3750393 105.6593679  64.9673852  42.9960662 106.7780469
  71.3236641  42.7872284 100.4276878  71.4724762  43.4707749  99.7743551
  72.1303085  42.7677374 100.9426334  69.0789274  38.8137462 101.4337947
  68.8335316  37.9099792 101.6318157  69.2485189  38.8154612 100.4917425
  68.3484922  34.5465819  98.9324109  67.6554167  34.6210174  98.2764145
  68.1036674  33.7826163  99.4545626  74.8232047  45.2820415  97.8988626
  74.2506014  45.9010602  97.4459098  75.3964840  45.8319776  98.4328548
  78.0429306  45.5657565  99.0297208  78.9759980  45.5003126  99.2330083
  77.9552519  46.4013832  98.5711741  80.6717323  44.8823435  95.9901156
  80.5930955  44.5483299  96.8836913  81.4926990  45.3745203  95.9892628
  75.2078845  36.6181227  95.2404678  76.1537950  36.4887436  95.3093096
  74.8293090  35.8795889  95.7174106  73.3921762  34.5431204  95.1759563
  72.4853218  34.2464317  95.2522277  73.6697743  34.2461022  94.3093850
  64.3099703  35.8637567 105.6258610  63.9902487  35.0102875 105.3332984
  63.7633131  36.0786145 106.3816577  68.0879610  38.5800008 109.3428116
  68.3065620  39.5117116 109.3616150  68.5005384  38.2207983 110.1282920
  75.0083828  29.0868094 101.3303805  74.1984556  28.7415178 101.7059051
  75.6968245  28.7775637 101.9191416  76.9374376  28.1646140 102.9528101
  77.4905415  28.5841594 103.6118124  77.1744463  27.2381888 102.9951057
  72.1620547  31.4018139  95.3171543  73.0239711  31.7273037  95.5767360
  72.3470891  30.6149635  94.8044608  64.1787963  39.4840479 107.5951731
  63.4851434  39.0694432 107.0821686  64.9260954  39.5261015 106.9985150
  80.3153183  30.2746665 102.4606766  79.7351853  30.9331470 102.0784818
  80.0489116  29.4524010 102.0494183  66.0924705  39.4158732 105.4717746
  66.0695393  39.5146420 104.5199629  66.4025342  40.2623883 105.7934912
  68.7512083  41.4734888 109.5864361  69.7055337  41.4418830 109.5194292
  68.5524607  41.0125511 110.4014587  69.3411465  40.0436004 112.1535158
  70.1604354  40.5380082 112.1769996  69.6148273  39.1267972 112.1252726
  79.0978061  32.4346756 101.5163114  78.2103916  32.7196406 101.2983309
  79.5132051  32.2740519 100.6690391  67.1062312  47.0154507 106.6034559
  66.9716780  46.2554908 106.0372557  66.6894374  47.7395407 106.1363347
  78.2421275  42.1991431  95.6111134  78.9457125  42.4041433  96.2268789
  77.5183924  42.7668192  95.8760217  79.0719085  37.9501292 101.7313404
  79.0154287  38.4069843 100.8921036  79.6247428  37.1891976 101.5536247
  82.8823891  33.7391024 102.5563524  82.6260825  33.3387659 103.3871731
  82.2576759  34.4534818 102.4313663  70.2631438  47.9123824 106.8153001
  70.1463822  48.8569257 106.7131691  69.4423884  47.6097386 107.2038800
  80.1507972  42.6373960  97.6609594  80.9853576  42.2055158  97.4787069
  79.9892315  42.4655973  98.5886488  79.8053865  39.1406073  99.0265933
  79.7502668  38.9750344  98.0854377  79.1799920  39.8482106  99.1828123
  73.1149990  28.6414182  98.6051252  73.1028660  29.5856022  98.7619522
  74.0073412  28.4584327  98.3110713  71.2885952  48.5652086 110.0308930
  72.1913199  48.5975696 110.3475425  71.0623322  47.6352537 110.0455265
  73.0439554  47.3183072 106.6919008  72.0935185  47.3184934 106.5783381
  73.3472040  46.5715807 106.1755043  76.9302109  25.2356959 102.8597188
  76.1634505  24.6815445 103.0053871  77.3412814  25.3078827 103.7211340
  81.4468769  54.9606515 103.6823186  80.8833635  54.8696452 102.9139474
  81.3321164  54.1406420 104.1625679  87.0268328  58.6277483  98.9937651
  86.3756308  59.2131563  98.6071665  87.8212691  59.1583678  99.0532689
  80.9523955  55.7166620  99.3924786  81.7254831  55.1695607  99.2537661
  81.3049354  56.5810870  99.6039247  83.2890233  51.8759286  97.0243235
  83.5415754  51.3540808  96.2626698  82.3514792  51.7125432  97.1269919
  88.5043593  56.3167915  99.5306635  87.8689426  56.3902542 100.2427540
  88.1741000  56.9061514  98.8525715  83.0086522  53.7787392  99.2267610
  82.8922780  53.1032296  99.8948695  83.1188782  53.2919766  98.4099763
  85.3518063  53.2397539 102.9314300  84.9876270  52.7128160 103.6427221
  86.2085179  52.8496008 102.7580785  84.9923550  48.2687439  97.9275648
  85.1597952  49.1367676  98.2946119  84.8020719  48.4314721  97.0036937
  84.9712771  50.7245097  98.9122315  84.8512396  51.1702147  99.7507795
  84.2765359  51.0730414  98.3535853  78.5620175  52.8251488 106.4621972
  78.6912557  53.0785967 107.3761384  77.8817627  53.4179196 106.1426627
  90.6697837  51.1966570  99.7402649  91.5815693  51.4293957  99.5650347
  90.1607484  51.7803614  99.1777728  83.7664267  52.0389949 101.2055881
  84.4688310  52.4910992 101.6729807  83.4344896  51.3973768 101.8335774
  77.5089601  50.2973501 106.5073014  76.7188655  50.5531030 106.0313125
  78.0000848  51.1121839 106.6125055  79.4604346  50.6618081 103.4656491
  78.6635510  50.7736775 103.9839987  79.2329939  51.0004733 102.5997382
  75.7927304  50.5503992 108.9388005  76.0435342  51.4351002 109.2045581
  76.3286852  50.3708593 108.1663097  78.4587429  56.3706329 101.8545911
  78.9711950  57.1649580 102.0051476  79.1110142  55.6732620 101.7879513
  76.4236346  54.6994984 102.6305482  77.2611568  55.1091992 102.4139189
  76.6014614  53.7594426 102.6005675  88.3200778  52.3670064  98.3189315
  87.8047401  53.1374669  98.5577702  88.0478086  51.6935200  98.9422376
  85.9047889  47.2119765 103.3774553  85.0489485  46.8226615 103.1980192
  86.3174841  47.2911726 102.5174338  83.6789921  44.8304838 106.7832294
  84.5442918  44.6347647 106.4238184  83.7467430  44.6015190 107.7101651
  93.2935052  55.1202419 100.2542488  92.5164495  54.7813578  99.8097650
  93.9726533  55.1255042  99.5797453  88.1087081  50.2397156 100.1449096
  87.8037217  50.5543306 100.9959239  89.0617523  50.3178576 100.1876429
  86.5533513  56.3987380 101.7942050  86.0254875  55.6640139 101.4815287
  86.0521016  57.1762056 101.5482018  81.2852241  47.0607046 104.1548661
  81.8595992  46.8382227 103.4221854  81.8723223  47.1295741 104.9077263
  81.6121828  49.0911507  98.1744546  80.7759140  49.4286194  98.4953821
  81.4726597  48.9560487  97.2371683  83.5874908  43.9348295 102.8823731
  82.9339321  43.6197312 102.2580345  83.5455382  43.3124035 103.6083554
  84.6986113  54.2167590  94.7977023  83.7913175  53.9856843  94.9968172
  85.1957145  53.4205209  94.9851004  87.6054192  62.9265097  97.7173709
  86.9315891  63.2296794  98.3258667  87.9920014  63.7294178  97.3679166
  87.6047696  51.8221644 102.3374059  88.3519515  52.3343041 102.0281181
  87.8739286  51.5005697 103.1978452  85.8774347  54.3180185  99.3201013
  84.9685566  54.0339218  99.4173483  85.9069430  54.7379263  98.4604320
  90.0526534  48.8578760 104.3192848  89.3149290  48.3456147 104.6503090
  90.3053307  48.4179142 103.5076125  76.4462517  52.0385699 103.3016215
  76.2486917  51.4455060 102.5767282  75.8909181  51.7337909 104.0192154
  84.4259241  51.9308805 105.4210808  84.4807850  50.9782642 105.3453285
  83.6150443  52.0868245 105.9052107  85.5750434  55.8588929  96.6589091
  85.1369864  55.1424787  96.1994729  86.3160875  56.0865043  96.0974183
  82.3651601  50.5485865 103.1801187  81.5519466  50.8480036 103.5866379
  82.8610595  50.1541554 103.8975669  81.8565675  48.1204221 108.7962422
  82.4965055  47.9792980 108.0985385  81.0243206  47.8338734 108.4201024
  78.9408743  51.5649733 100.9857167  78.0106331  51.5034188 101.2027129
  79.0366215  51.0425686 100.1893808  78.8594292  48.0904546 103.5735409
  79.1201109  49.0049879 103.4644569  79.6811464  47.6228988 103.7232022
  89.6961662  54.7173310  96.2521149  89.0790833  53.9920138  96.1554202
  89.2278150  55.4782670  95.9088223  81.4860208  48.9358734  95.3742453
  80.6089674  48.8147535  95.0104700  81.9617961  48.1444813  95.1221342
  73.0062348  53.7235894 105.4683960  73.6933388  53.4097624 104.8804976
  72.8510477  54.6277259 105.1951212  77.8097070  48.6126091 109.8968984
  77.7255259  48.0051760 109.1619394  76.9879777  49.1035109 109.8978480
  87.9820784  47.0979654 105.2639179  88.4789484  46.3449617 104.9440249
  87.2107766  47.1343971 104.6982388  84.5655753  49.2397037 104.9910864
  84.1953540  48.6868078 105.6791769  85.0614845  48.6355171 104.4385864
  72.5830324  51.8036488 107.7401428  72.6214424  51.2700078 108.5338546
  72.0770617  51.2771693 107.1212405  76.2138902  50.5300590 100.8155359
  76.5092343  49.6211268 100.7622413  75.3126938  50.5088329 100.4936361
  79.7433149  48.6056586 106.7982908  79.0219734  49.2192554 106.6590381
  80.5326405  49.1414351 106.7199553  77.9426743  48.2114687 100.9394684
  77.6139449  47.3312066 100.7569790  78.2966114  48.1562356 101.8271073
  81.0568566  48.4987657 101.3070162  81.3964639  49.0273578 100.5848770
  81.5040687  48.8368063 102.0828728  83.0436714  46.9962279  99.5063455
  83.7645076  47.3743532  99.0027171  82.4202018  47.7151156  99.6098432
  87.1867837  47.7007428 100.4421787  87.4031451  48.5832066 100.1410615
  86.7061904  47.3093641  99.7127429  83.7863441  47.6495689 107.0673421
  83.7725010  46.7536782 106.7305719  84.5035869  47.6566353 107.7011707
  83.1900337  46.5310069 102.3360991  83.3116248  45.6026715 102.5351879
  82.9002379  46.5448755 101.4239307  86.0591527  44.2164980 105.4727711
  86.0813224  44.2804313 104.5179691  86.4759586  43.3769488 105.6668217
  82.1630396  58.1164202 100.4276878  82.3118516  58.7999666  99.7743551
  82.9696839  58.0969292 100.9426334  79.9183029  54.1429380 101.4337947
  79.6729071  53.2391710 101.6318157  80.0878943  54.1446530 100.4917425
  79.1878676  49.8757737  98.9324109  78.4947921  49.9502092  98.2764145
  78.9430428  49.1118081  99.4545626  85.6625801  60.6112332  97.8988626
  85.0899768  61.2302519  97.4459098  86.2358595  61.1611694  98.4328548
  91.5111078  60.2115353  95.9901156  91.4324709  59.8775216  96.8836913
  92.3320744  60.7037121  95.9892628  86.0472600  51.9473145  95.2404678
  86.9931704  51.8179353  95.3093096  85.6686845  51.2087807  95.7174106
  84.2315517  49.8723121  95.1759563  83.3246972  49.5756234  95.2522277
  84.5091498  49.5752940  94.3093850  75.1493457  51.1929485 105.6258610
  74.8296242  50.3394793 105.3332984  74.6026885  51.4078063 106.3816577
  85.8477583  44.4160011 101.3303805  85.0378311  44.0707096 101.7059051
  86.5361999  44.1067555 101.9191416  87.7768131  43.4938058 102.9528101
  88.3299169  43.9133511 103.6118124  88.0138217  42.5673806 102.9951057
  83.0014301  46.7310057  95.3171543  83.8633465  47.0564955  95.5767360
  83.1864646  45.9441553  94.8044608  75.0181717  54.8132396 107.5951731
  74.3245189  54.3986349 107.0821686  75.7654708  54.8552933 106.9985150
  91.1546938  45.6038583 102.4606766  90.5745607  46.2623387 102.0784818
  90.8882871  44.7815928 102.0494183  76.9318460  54.7450650 105.4717746
  76.9089148  54.8438337 104.5199629  77.2419096  55.5915801 105.7934912
  89.9371816  47.7638674 101.5163114  89.0497671  48.0488324 101.2983309
  90.3525805  47.6032437 100.6690391  89.0815029  57.5283348  95.6111134
  89.7850880  57.7333351  96.2268789  88.3577678  58.0960110  95.8760217
  89.9112840  53.2793209 101.7313404  89.8548041  53.7361761 100.8921036
  90.4641182  52.5183894 101.5536247  93.7217646  49.0682941 102.5563524
  93.4654580  48.6679577 103.3871731  93.0970514  49.7826735 102.4313663
  90.9901727  57.9665877  97.6609594  91.8247331  57.5347076  97.4787069
  90.8286070  57.7947891  98.5886488  90.6447619  54.4697991  99.0265933
  90.5896423  54.3042262  98.0854377  90.0193674  55.1774024  99.1828123
  83.9543744  43.9706100  98.6051252  83.9422414  44.9147940  98.7619522
  84.8467166  43.7876245  98.3110713  87.7695864  40.5648876 102.8597188
  87.0028260  40.0107363 103.0053871  88.1806569  40.6370745 103.7211340
  92.3253962  64.2650652  95.3742453  91.4483429  64.1439453  95.0104700
  92.8011715  63.4736730  95.1221342  93.8408056  62.0601974  95.3171543
  94.7027220  62.3856873  95.5767360  94.0258400  61.2733470  94.8044608
  65.3480820   4.9755770  85.7182958  64.6968800   5.5609851  85.3316972
  66.1425183   5.5061965  85.7777995  59.2736448   2.0644907  86.1170092
  60.0467324   1.5173895  85.9782968  59.6261846   2.9289157  86.3284554
  66.8256086   2.6646202  86.2551942  66.1901919   2.7380829  86.9672847
  66.4953492   3.2539801  85.5771021  61.0532155   9.8427026  89.2857753
  60.9756185  10.7934851  89.3646233  60.4493799   9.4972898  89.9432679
  63.1507873   2.2645084  91.1211622  63.6146219   2.5432787  90.3316245
  62.8864671   1.3628528  90.9384713  63.3270524   5.2009179  88.0063293
  63.1916199   6.0460714  88.4348140  63.8680336   5.4028456  87.2429226
  56.7799921   2.7184617  88.5791218  57.2924442   3.5127867  88.7296782
  57.4322634   2.0210907  88.5124819  58.5894806   5.8350373  90.6613971
  58.7661434   6.7568338  90.4734955  59.3851640   5.5208792  91.0908351
  64.8746005   2.7465667  88.5187356  64.3467367   2.0118427  88.2060594
  64.3733508   3.5240343  88.2727325  65.9266684   9.2743384  84.4419016
  65.2528383   9.5775081  85.0503973  66.3132506  10.0772465  84.0924473
  69.4306106   4.2765062  89.8137487  68.9768433   3.4355971  89.8702677
  68.8000073   4.9126460  90.1512267  67.8739046   6.1141558  90.7487305
  68.1662020   6.6746615  90.0299671  68.3837666   6.4070119  91.5040464
  63.8962927   2.2067216  83.3834398  63.4582357   1.4903075  82.9240035
  64.6373368   2.4343331  82.8219489  62.8372671   6.8921909  91.8380758
  62.7948849   7.1182756  90.9089290  63.7535370   6.6585284  91.9866560
  60.9538471   3.7684938  91.6342721  61.7479070   3.2735259  91.4325296
  60.2430164   3.2402802  91.2710427  64.1257899   9.4423057  86.6566095
  64.3009655   8.9711100  87.4711717  63.4390687  10.0688823  86.8847355
  65.0814963   3.7195563  92.7029396  64.7464795   3.6796333  93.5987046
  64.5818908   3.0540279  92.2299806  58.6918985  12.5912420  93.4305955
  58.9315583  13.2230944  94.1084973  57.8488181  12.2400460  93.7171314
  63.2046847   8.3991542  95.8347459  63.1317018   9.2046514  96.3466763
  62.7624240   8.5983508  95.0095480  62.9936626   7.6363312  89.3450280
  62.2104148   8.1784992  89.4388505  63.6929371   8.1537292  89.7444522
  68.8411839   4.3890769  87.0959095  69.1171683   4.2747364  88.0052969
  67.9716338   3.9908254  87.0571268  65.4765903   8.6377120  90.7391909
  65.6588298   7.8198776  91.2019661  66.2998890   8.8544812  90.3016799
  65.8108069   7.5645305  88.0006957  66.3395835   7.0537760  87.3877120
  66.0736289   7.2487836  88.8652490  59.1663817   8.6160422  90.7604733
  58.4974192   9.1006550  90.2768773  59.0276687   8.8629642  91.6748112
  66.4437473   8.5986141  94.3451074  66.3188612   7.7975881  93.8362019
  67.1016564   9.0932334  93.8565044  68.5072381   6.3995161  95.9730624
  67.5602717   6.2800512  95.9008951  68.8555154   5.5117659  96.0556885
  65.5118814   6.1947877  92.1734976  65.3643777   5.2664585  92.3542546
  66.3372308   6.2167968  91.6892051  69.1152936   7.0176436  93.2599849
  70.0399484   6.8119297  93.1224300  68.9468240   6.7692837  94.1689190
  68.9048253   7.5362103  88.6161940  69.0785130   6.9708526  87.8635793
  69.3977144   8.3362998  88.4341430  69.8923425   6.8528868  85.7158839
  70.5874330   7.4735561  85.9346153  70.2346575   6.0024219  85.9911217
  63.4755509  10.3700557  91.6041423  63.0360499   9.8776935  92.2974279
  64.2263626   9.8273524  91.3633498  60.4842888   4.4642489  87.1522185
  60.6331008   5.1477954  86.4988858  61.2909331   4.4447579  87.6671641
  58.2395521   0.4907667  88.1583254  57.9941563  -0.4130003  88.3563464
  58.4091435   0.4924817  87.2162732  63.9838293   6.9590620  84.6233932
  63.4112261   7.5780807  84.1704404  64.5571087   7.5089981  85.1573854
  67.2035553   7.2427770  85.7542515  68.1366226   7.1773331  85.9575390
  67.1158766   8.0784037  85.2957047  69.8323570   6.5593640  82.7146462
  69.7537201   6.2253504  83.6082220  70.6533237   7.0515408  82.7137934
  56.2668559   8.6924712  93.3279865  56.1323027   7.9325113  92.7617863
  55.8500621   9.4165612  92.8608654  67.4027522   3.8761635  82.3356440
  68.1063372   4.0811638  82.9514096  66.6790170   4.4438397  82.6005524
  59.4237685   9.5894029  93.5398308  59.3070069  10.5339461  93.4376998
  58.6030131   9.2867591  93.9284107  69.3114219   4.3144165  84.3854901
  70.1459823   3.8825363  84.2032375  69.1498562   4.1426178  85.3131795
  62.2045801   8.9953277  93.4164315  61.2541432   8.9955139  93.3028687
  62.5078287   8.2486012  92.9000349  77.9398494  14.8313816  94.4810077
  78.5776904  14.7120563  93.7773417  77.8219337  15.7794660  94.5398029
  74.7488200  14.7841244  94.4171602  74.4106712  14.6682309  93.5292137
  75.6177969  14.3832409  94.3972608  70.6075016  16.6376720  90.4068493
  70.0439881  16.5466657  89.6384781  70.4927411  15.8176625  90.8870985
  68.1539448  18.1327912  93.2452713  68.9460740  17.7918737  92.8299013
  68.3936098  18.2422887  94.1654867  76.1874575  20.3047688  85.7182958
  75.5362555  20.8901768  85.3316972  76.9818938  20.8353883  85.7777995
  70.1130202  17.3936825  86.1170092  70.8861078  16.8465812  85.9782968
  70.4655601  18.2581074  86.3284554  71.9515245  18.7213207  99.3236991
  71.6605111  19.6258838  99.2083658  72.5872229  18.7629735 100.0381061
  72.8771451  16.0990056  95.9138351  73.4735024  15.8746078  95.1995314
  72.9346423  15.3574801  96.5163799  72.4496480  13.5529491  83.7488542
  72.7022001  13.0311013  82.9872005  71.5121039  13.3895637  83.8515226
  77.4939763  12.5565270  91.5563285  78.2802852  12.1384693  91.2053702
  77.7578467  13.4611362  91.7244934  77.6649840  17.9938120  86.2551942
  77.0295673  18.0672746  86.9672847  77.3347246  18.5831719  85.5771021
  72.1692769  15.4557597  85.9512917  72.0529027  14.7802501  86.6194001
  72.2795029  14.9689971  85.1345070  74.5124310  14.9167744  89.6559606
  74.1482517  14.3898365  90.3672528  75.3691425  14.5266213  89.4826092
  74.1529797   9.9457644  84.6520955  74.3204199  10.8137880  85.0191426
  73.9626966  10.1084926  83.7282244  76.9105130  18.4074623  96.3186785
  76.6105853  19.3099662  96.2102592  76.5656189  18.1406806  97.1707938
  70.3617611  14.8588420  92.3523490  69.4368108  14.7264634  92.5601181
  70.6102024  15.6382639  92.8493432  74.1319017  12.4015302  85.6367622
  74.0118643  12.8472352  86.4753102  73.4371606  12.7500619  85.0781160
  67.7226422  14.5021693  93.1867279  67.8518803  14.7556172  94.1006690
  67.0423874  15.0949401  92.8671934  71.8925910  25.1718943  89.2857753
  71.8149939  26.1226768  89.3646233  71.2887553  24.8264816  89.9432679
  79.8304084  12.8736775  86.4647956  80.7421940  13.1064161  86.2895653
  79.3213731  13.4573819  85.9023034  72.6389512  15.1532262 101.5037087
  73.3804196  15.6917306 101.2271910  71.9326497  15.7798551 101.6608639
  74.4675921  12.2334009  97.4742805  75.3137116  12.6573423  97.6177454
  74.4074559  11.5767634  98.1681368  78.4373666  17.8562593  93.8561537
  77.8082528  18.0208307  93.1537605  78.0499328  18.2704203  94.6272501
  82.3162898  18.7917031  91.2105901  81.6313936  19.1715932  90.6602934
  82.4006747  19.4012358  91.9437849  73.9901628  17.5937001  91.1211622
  74.4539973  17.8724704  90.3316245  73.7258426  16.6920446  90.9384713
  70.8825709  17.1408483  94.0591385  71.4527066  17.5695751  93.4208870
  71.4733821  16.8591067  94.7575571  72.9270514  13.7160154  87.9301187
  73.6294557  14.1681197  88.3975114  72.5951142  13.0743972  88.5581080
  66.6695848  11.9743706  93.2318321  65.8794902  12.2301235  92.7558432
  67.1607095  12.7892044  93.3370361  80.6859657  19.3148945  95.9823602
  81.5077101  18.9129133  95.7006283  80.6822060  19.2117180  96.9339718
  68.6210593  12.3388286  90.1901798  67.8241756  12.4506980  90.7085293
  68.3936185  12.6774938  89.3242688  74.4516261  18.8632989  98.1384312
  74.5160693  19.3253396  98.9742484  73.7427185  18.2330354  98.2666622
  64.9533551  12.2274197  95.6633312  65.2041589  13.1121207  95.9290888
  65.4893099  12.0478798  94.8908404  74.1664278  20.5301096  88.0063293
  74.0309953  21.3752632  88.4348140  74.7074091  20.7320374  87.2429226
  67.6193676  18.0476534  88.5791218  68.1318196  18.8419785  88.7296782
  68.2716389  17.3502825  88.5124819  69.4288561  21.1642291  90.6613971
  69.6055189  22.0860255  90.4734955  70.2245394  20.8500710  91.0908351
  75.7932755  21.1524663 102.1363635  75.3496609  20.3661041 101.8184539
  76.4549968  21.3403813 101.4707525  70.5519876  22.6820464  96.6624313
  71.1027301  22.5537528  95.8901307  69.7131352  22.9815353  96.3119206
  74.3487047  18.9471592 101.0068544  74.8815384  18.1859880 100.7767852
  73.8201128  18.6545244 101.7492699  65.5842593  16.3765189  89.3550788
  66.4217815  16.7862197  89.1384496  65.7620860  15.4364631  89.3250982
  77.4807025  14.0440269  85.0434621  76.9653648  14.8144874  85.2823009
  77.2084333  13.3705405  85.6667683  75.0654136   8.8889970  90.1019860
  74.2095732   8.4996820  89.9225498  75.4781088   8.9681931  89.2419645
  72.8396168   6.5075043  93.5077601  73.7049165   6.3117852  93.1483491
  72.9073677   6.2785395  94.4346958  82.4541299  16.7972624  86.9787795
  81.6770742  16.4583783  86.5342957  83.1332780  16.8025247  86.3042760
  77.2693328  11.9167361  86.8694402  76.9643463  12.2313510  87.7204546
  78.2223770  11.9948781  86.9121735  75.7139760  18.0757585  88.5187356
  75.1861121  17.3410344  88.2060594  75.2127262  18.8532261  88.2727325
  80.6932606  16.2706605  93.6354403  80.0356280  16.9605867  93.7234531
  81.4973005  16.6603037  93.9788389  70.4458487   8.7377251  90.8793968
  71.0202239   8.5152432  90.1467161  71.0329470   8.8065945  91.6322569
  79.5038065  14.6250978  91.6858344  80.0169946  15.2580970  92.1880054
  80.1539288  14.0252173  91.3201704  70.7728074  10.7681712  84.8989853
  69.9365387  11.1056398  85.2199128  70.6332844  10.6330692  83.9616990
  72.7481155   5.6118500  89.6069037  72.0945567   5.2967517  88.9825652
  72.7061629   4.9894240  90.3328860  73.8592360  15.8937795  81.5222329
  72.9519422  15.6627048  81.7213478  74.3563392  15.0975414  81.7096311
  76.7660439  24.6035302  84.4419016  76.0922138  24.9066999  85.0503973
  77.1526261  25.4064382  84.0924473  75.9818895  12.1000433  93.9316685
  75.0641457  12.3215380  93.7738373  76.3979039  12.1746744  93.0728392
  76.7653943  13.4991849  89.0619365  77.5125762  14.0113246  88.7526487
  77.0345533  13.1775902  89.9223759  75.0380593  15.9950390  86.0446319
  74.1291813  15.7109423  86.1418789  75.0675677  16.4149468  85.1849626
  80.2699861  19.6056979  89.8137487  79.8162188  18.7647889  89.8702677
  79.6393827  20.2418378  90.1512267  79.2132780  10.5348965  91.0438154
  78.4755537  10.0226351  91.3748397  79.4659554  10.0949347  90.2321431
  78.7132800  21.4433476  90.7487305  79.0055774  22.0038533  90.0299671
  79.2231421  21.7362037  91.5040464  65.6068764  13.7155904  90.0261522
  65.4093164  13.1225265  89.3012588  65.0515428  13.4108114  90.7437460
  73.5865487  13.6079010  92.1456115  73.6414097  12.6552847  92.0698591
  72.7756689  13.7638449  92.6297413  74.7356681  17.5359133  83.3834398
  74.2976111  16.8194992  82.9240035  75.4767122  17.7635248  82.8219489
  71.5257847  12.2256070  89.9046494  70.7125713  12.5250241  90.3111686
  72.0216841  11.8311759  90.6220976  73.6766425  22.2213827  91.8380758
  73.6342604  22.4474673  90.9089290  74.5929124  21.9877202  91.9866560
  82.8529796  15.8116330  89.4410717  82.7147695  16.0017926  88.5131906
  82.4966015  16.5735713  89.8978768  71.0171922   9.7974426  95.5207729
  71.6571301   9.6563185  94.8230692  70.1849453   9.5108939  95.1446331
  71.7932226  19.0976856  91.6342721  72.5872824  18.6027176  91.4325296
  71.0823918  18.5694719  91.2710427  76.6127070  21.4794952  95.9855089
  76.6664093  22.0485888  96.7532805  75.7441852  21.6496837  95.6209126
  68.1014989  13.2419938  87.7102474  67.1712578  13.1804393  87.9272436
  68.1972461  12.7195891  86.9139115  68.0200538   9.7674751  90.2980715
  68.2807356  10.6820084  90.1889876  68.8417711   9.2999193  90.4477328
  69.4925464  11.1812508  97.4679540  70.1648517  10.9729870  96.8192189
  68.6655250  10.9834594  97.0284772  75.5715170  15.6455214  97.5442021
  76.5007230  15.7966373  97.3710988  75.1506200  15.7339234  96.6890667
  74.3703502  19.6705878  95.3140558  74.2314588  19.3024662  96.1866496
  73.5818098  20.1853517  95.1424516  74.9651654  24.7714975  86.6566095
  75.1403410  24.3003018  87.4711717  74.2784442  25.3980741  86.8847355
  75.9208717  19.0487481  92.7029396  75.5858550  19.0088251  93.5987046
  75.4212663  18.3832197  92.2299806  69.8952961  14.4555111  98.2281977
  69.7572759  13.7235350  98.8293516  70.8057885  14.3664011  97.9466165
  78.8567909  16.3943515  82.9766456  78.2397079  15.6690343  82.8799508
  78.3884397  17.1552875  82.6333530  72.5235262  14.1675070  97.7165657
  73.2334880  13.5268262  97.6752275  72.4804570  14.4187965  98.6391838
  71.2364196  11.1540288  99.5361296  70.7001553  10.7031026 100.1882893
  70.6480904  11.2886197  98.7931761  69.5312739  27.9204337  93.4305955
  69.7709337  28.5522861  94.1084973  68.6881936  27.5692377  93.7171314
  70.6466455  10.6128939  82.0987760  69.7695921  10.4917740  81.7350007
  71.1224208   9.8215018  81.8466649  62.1668595  15.4006099  92.1929267
  62.8539635  15.0867829  91.6050282  62.0116723  16.3047464  91.9196518
  66.9703317  10.2896296  96.6214291  66.8861506   9.6821965  95.8864701
  66.1486023  10.7805314  96.6223787  74.0440601  23.7283460  95.8347459
  73.9710773  24.5338431  96.3466763  73.6017994  23.9275426  95.0095480
  73.8330381  22.9655230  89.3450280  73.0497903  23.5076910  89.4388505
  74.5323126  23.4829209  89.7444522  77.1427031   8.7749859  91.9884486
  77.6395730   8.0219822  91.6685556  76.3714012   8.8114176  91.4227695
  76.5039285  23.6270294  97.9905618  77.2167257  24.2617759  97.9181519
  76.0129313  23.7234160  97.1745619  78.2256812  17.5321546  89.5622909
  77.2913090  17.6523009  89.3927614  78.4033480  16.6294013  89.2982919
  73.7262000  10.9167242  91.7156170  73.3559787  10.3638283  92.4037076
  74.2221092  10.3125376  91.1631170  81.6129363  13.3738866  90.0972943
  82.0789815  14.2066857  90.0233246  82.0636863  12.9083847  90.8018202
  71.5551198  21.3764737  98.8111188  72.2560658  22.0101220  98.9640583
  71.0846313  21.7179469  98.0506828  79.6805594  19.7182687  87.0959095
  79.9565438  19.6039282  88.0052969  78.8110093  19.3200172  87.0571268
  76.3159658  23.9669038  90.7391909  76.4982053  23.1490694  91.2019661
  77.1392644  24.1836730  90.3016799  76.6501823  22.8937223  88.0006957
  77.1789590  22.3829678  87.3877120  76.9130043  22.5779753  88.8652490
  67.1518916  20.9101092  95.7442291  67.7372353  20.1644780  95.8770195
  66.9543755  21.2205049  96.6278955  70.0057571  23.9452340  90.7604733
  69.3367947  24.4298467  90.2768773  69.8670441  24.1921560  91.6748112
  61.7436571  13.4806692  94.4646734  61.7820670  12.9470283  95.2583852
  61.2376864  12.9541898  93.8457711  74.1462840  25.9796083  97.3587392
  74.6981148  26.1427705  98.1236477  74.4869033  26.5700521  96.6867417
  69.1227333   8.3271233  97.9609276  69.1868660   9.1886064  97.5486674
  69.0594453   7.7145235  97.2281635  65.3745149  12.2070795  87.5400666
  65.6698590  11.2981473  87.4867719  64.4733184  12.1858534  87.2181668
  77.2831227  23.9278059  94.3451074  77.1582367  23.1267799  93.8362019
  77.9410318  24.4224252  93.8565044  68.9039396  10.2826791  93.5228214
  68.1825981  10.8962759  93.3835687  69.6932651  10.8184556  93.4444860
  79.3466136  21.7287079  95.9730624  78.3996471  21.6092430  95.9008951
  79.6948909  20.8409577  96.0556885  67.1032990   9.8884892  87.6639991
  66.7745696   9.0082271  87.4815097  67.4572361   9.8332561  88.5516380
  76.3512569  21.5239795  92.1734976  76.2037531  20.5956502  92.3542546
  77.1766062  21.5459886  91.6892051  70.2174813  10.1757862  88.0315468
  70.5570886  10.7043783  87.3094077  70.6646934  10.5138268  88.8074035
  79.9546691  22.3468354  93.2599849  80.8793238  22.1411215  93.1224300
  79.7861994  22.0984755  94.1689190  72.2042960   8.6732484  86.2308761
  72.9251323   9.0513736  85.7272478  71.5808265   9.3921360  86.3343739
  76.3474083   9.3777633  87.1667093  76.5637698  10.2602271  86.8655922
  75.8668150   8.9863846  86.4372735  71.0873305  12.3363346  93.7437838
  70.9417885  12.6503649  94.6362120  70.6098508  12.9548246  93.1908737
  72.9469688   9.3265894  93.7918728  72.9331256   8.4306987  93.4551026
  73.6642116   9.3336558  94.4257014  74.7995818   9.7603234  95.8371855
  74.5413596  10.6820305  95.8356185  74.2680859   9.3633669  96.5272319
  79.7442007  22.8654021  88.6161940  79.9178885  22.3000444  87.8635793
  80.2370898  23.6654916  88.4341430  65.5618967  14.8768690  96.6825499
  65.0172435  15.6528498  96.8145774  66.4398317  15.2239495  96.5244621
  72.3506583   8.2080274  89.0606298  72.4722495   7.2796920  89.2597185
  72.0608626   8.2218960  88.1484613  85.5981398  15.6290444  90.2352240
  86.0412544  14.8797769  89.8371363  84.7207908  15.6200580  89.8525972
  80.7317180  22.1820786  85.7158839  81.4268084  22.8027478  85.9346153
  81.0740330  21.3316137  85.9911217  66.3484989  14.0038587  99.5755656
  65.6066725  14.1521222 100.1620287  66.0277733  14.2646852  98.7122406
  82.6308603  19.6320491  87.2446169  83.1559927  19.9707764  86.5195490
  82.5430955  18.6967506  87.0609304  74.2928651  23.5454565  99.3736046
  74.6015778  23.3003712 100.2458746  75.0904133  23.7501203  98.8854916
  74.3149263  25.6992474  91.6041423  73.8754254  25.2068853  92.2974279
  75.0657380  25.1565442  91.3633498  66.7941602  21.8904015  91.6066051
  67.6199622  21.5907787  91.2264694  66.4435654  21.1211638  92.0555839
  71.7623136  21.2430483  93.6763724  71.1403145  20.5801188  93.3765952
  72.4328002  21.2691615  92.9937372  64.9950207  19.8090342  92.5654984
  64.1582116  19.3812516  92.3838986  64.9673853  20.0022785  93.5025776
  71.3236642  19.7934407  87.1522185  71.4724763  20.4769871  86.4988858
  72.1303086  19.7739497  87.6671641  69.0789275  15.8199584  88.1583254
  68.8335317  14.9161914  88.3563464  69.2485190  15.8216735  87.2162732
  68.3484923  11.5527942  85.6569415  67.6554168  11.6272297  85.0009451
  68.1036675  10.7888286  86.1790932  74.8232048  22.2882537  84.6233932
  74.2506015  22.9072724  84.1704404  75.3964842  22.8381899  85.1573854
  78.0429308  22.5719687  85.7542515  78.9759981  22.5065249  85.9575390
  77.9552521  23.4075954  85.2957047  80.6717324  21.8885558  82.7146462
  80.5930956  21.5545421  83.6082220  81.4926991  22.3807326  82.7137934
  75.2078846  13.6243350  81.9649985  76.1537951  13.4949558  82.0338403
  74.8293091  12.8858012  82.4419413  73.3921764  11.5493326  81.9004870
  72.4853219  11.2526439  81.9767584  73.6697745  11.2523144  81.0339156
  64.3099704  12.8699690  92.3503916  63.9902488  12.0164998  92.0578290
  63.7633132  13.0848268  93.1061884  68.0879612  15.5862131  96.0673423
  68.3065621  16.5179239  96.0861457  68.5005385  15.2270105  96.8528227
  75.0083829   6.0930216  88.0549111  74.1984558   5.7477301  88.4304357
  75.6968246   5.7837760  88.6436723  72.1620548   8.4080262  82.0416849
  73.0239712   8.7335160  82.3012667  72.3470892   7.6211758  81.5289915
  64.1787964  16.4902601  94.3197038  63.4851435  16.0756554  93.8066992
  64.9260955  16.5323138  93.7230457  66.0924707  16.4220855  92.1963053
  66.0695395  16.5208542  91.2444936  66.4025343  17.2686006  92.5180219
  68.7512084  18.4797010  96.3109667  69.7055338  18.4480952  96.2439599
  68.5524608  18.0187634  97.1259893  69.3411467  17.0498126  98.8780465
  70.1604356  17.5442205  98.9015302  69.6148274  16.1330094  98.8498032
  79.0978063   9.4408878  88.2408420  78.2103918   9.7258529  88.0228615
  79.5132052   9.2802642  87.3935697  67.1062313  24.0216630  93.3279865
  66.9716781  23.2617030  92.7617863  66.6894375  24.7457529  92.8608654
  78.2421276  19.2053553  82.3356440  78.9457126  19.4103556  82.9514096
  77.5183925  19.7730315  82.6005524  79.0719086  14.9563414  88.4558711
  79.0154288  15.4131966  87.6166343  79.6247429  14.1954099  88.2781553
  82.8823892  10.7453146  89.2808830  82.6260827  10.3449782  90.1117038
  82.2576760  11.4596940  89.1558969  70.2631439  24.9185947  93.5398308
  70.1463823  25.8631379  93.4376998  69.4423885  24.6159508  93.9284107
  80.1507974  19.6436082  84.3854901  80.9853578  19.2117281  84.2032375
  79.9892317  19.4718096  85.3131795  79.8053866  16.1468196  85.7511240
  79.7502670  15.9812467  84.8099684  79.1799921  16.8544229  85.9073430
  73.1149991   5.6476305  85.3296558  73.1028661   6.5918145  85.4864829
  74.0073413   5.4646450  85.0356019  71.2885953  25.5714209  96.7554236
  72.1913200  25.6037819  97.0720731  71.0623323  24.6414659  96.7700572
  73.0439555  24.3245195  93.4164315  72.0935186  24.3247057  93.3028687
  73.3472041  23.5777930  92.9000349  88.7792249  30.1605733  94.4810077
  89.4170659  30.0412481  93.7773417  88.6613092  31.1086577  94.5398029
  85.5881955  30.1133162  94.4171602  85.2500466  29.9974226  93.5292137
  86.4571723  29.7124327  94.3972608  81.4468771  31.9668638  90.4068493
  80.8833636  31.8758575  89.6384781  81.3321166  31.1468542  90.8870985
  78.9933203  33.4619830  93.2452713  79.7854495  33.1210654  92.8299013
  79.2329853  33.5714805  94.1654867  87.0268329  35.6339606  85.7182958
  86.3756309  36.2193686  85.3316972  87.8212692  36.1645801  85.7777995
  80.9523957  32.7228743  86.1170092  81.7254833  32.1757730  85.9782968
  81.3049355  33.5872992  86.3284554  82.7908999  34.0505125  99.3236991
  82.4998865  34.9550756  99.2083658  83.4265983  34.0921653 100.0381061
  83.7165206  31.4281974  95.9138351  84.3128778  31.2037996  95.1995314
  83.7740177  30.6866719  96.5163799  83.2890234  28.8821409  83.7488542
  83.5415755  28.3602930  82.9872005  82.3514793  28.7187554  83.8515226
  88.3333517  27.8857187  91.5563285  89.1196606  27.4676610  91.2053702
  88.5972222  28.7903279  91.7244934  88.5043595  33.3230038  86.2551942
  87.8689428  33.3964664  86.9672847  88.1741001  33.9123636  85.5771021
  83.0086523  30.7849515  85.9512917  82.8922781  30.1094418  86.6194001
  83.1188783  30.2981889  85.1345070  85.3518064  30.2459662  89.6559606
  84.9876271  29.7190283  90.3672528  86.2085180  29.8558131  89.4826092
  84.9923551  25.2749562  84.6520955  85.1597953  26.1429798  85.0191426
  84.8020720  25.4376843  83.7282244  87.7498884  33.7366541  96.3186785
  87.4499607  34.6391579  96.2102592  87.4049944  33.4698724  97.1707938
  81.2011366  30.1880337  92.3523490  80.2761862  30.0556552  92.5601181
  81.4495779  30.9674557  92.8493432  84.9712772  27.7307219  85.6367622
  84.8512397  28.1764270  86.4753102  84.2765360  28.0792537  85.0781160
  78.5620177  29.8313611  93.1867279  78.6912558  30.0848090  94.1006690
  77.8817628  30.4241319  92.8671934  82.7319664  40.5010861  89.2857753
  82.6543694  41.4518686  89.3646233  82.1281308  40.1556733  89.9432679
  90.6697838  28.2028692  86.4647956  91.5815694  28.4356079  86.2895653
  90.1607485  28.7865737  85.9023034  83.4783266  30.4824180 101.5037087
  84.2197950  31.0209224 101.2271910  82.7720252  31.1090468 101.6608639
  85.3069676  27.5625927  97.4742805  86.1530871  27.9865341  97.6177454
  85.2468313  26.9059551  98.1681368  89.2767420  33.1854511  93.8561537
  88.6476283  33.3500225  93.1537605  88.8893082  33.5996120  94.6272501
  93.1556652  34.1208949  91.2105901  92.4707690  34.5007850  90.6602934
  93.2400502  34.7304275  91.9437849  84.8295382  32.9228919  91.1211622
  85.2933728  33.2016622  90.3316245  84.5652180  32.0212363  90.9384713
  81.7219463  32.4700400  94.0591385  82.2920820  32.8987669  93.4208870
  82.3127575  32.1882985  94.7575571  83.7664268  29.0452071  87.9301187
  84.4688312  29.4973115  88.3975114  83.4344897  28.4035890  88.5581080
  77.5089602  27.3035624  93.2318321  76.7188656  27.5593152  92.7558432
  78.0000850  28.1183962  93.3370361  91.5253412  34.6440863  95.9823602
  92.3470856  34.2421050  95.7006283  91.5215815  34.5409097  96.9339718
  79.4604348  27.6680203  90.1901798  78.6635511  27.7798897  90.7085293
  79.2329940  28.0066855  89.3242688  85.2910015  34.1924906  98.1384312
  85.3554448  34.6545314  98.9742484  84.5820939  33.5622271  98.2666622
  75.7927305  27.5566114  95.6633312  76.0435344  28.4413124  95.9290888
  76.3286854  27.3770716  94.8908404  85.0058033  35.8593014  88.0063293
  84.8703708  36.7044550  88.4348140  85.5467845  36.0612292  87.2429226
  78.4587430  33.3768452  88.5791218  78.9711951  34.1711702  88.7296782
  79.1110143  32.6794742  88.5124819  80.2682315  36.4934208  90.6613971
  80.4448943  37.4152173  90.4734955  81.0639149  36.1792627  91.0908351
  79.5534672  28.5398840 100.5376134  79.4388187  27.6384097 100.8383233
  78.6979189  28.7862537 100.1860951  86.6326509  36.4816580 102.1363635
  86.1890363  35.6952959 101.8184539  87.2943723  36.6695731 101.4707525
  81.3913630  38.0112382  96.6624313  81.9421056  37.8829445  95.8901307
  80.5525106  38.3107271  96.3119206  85.1880802  34.2763510 101.0068544
  85.7209138  33.5151798 100.7767852  84.6594883  33.9837162 101.7492699
  76.4236347  31.7057106  89.3550788  77.2611569  32.1154115  89.1384496
  76.6014615  30.7656548  89.3250982  88.3200779  29.3732187  85.0434621
  87.8047403  30.1436792  85.2823009  88.0478088  28.6997323  85.6667683
  85.9047890  24.2181888  90.1019860  85.0489487  23.8288738  89.9225498
  86.3174842  24.2973848  89.2419645  93.2935053  32.1264542  86.9787795
  92.5164496  31.7875701  86.5342957  93.9726534  32.1317165  86.3042760
  88.1087082  27.2459279  86.8694402  87.8037218  27.5605428  87.7204546
  89.0617524  27.3240699  86.9121735  86.5533514  33.4049502  88.5187356
  86.0254876  32.6702262  88.2060594  86.0521017  34.1824179  88.2727325
  91.5326360  31.5998523  93.6354403  90.8750035  32.2897784  93.7234531
  92.3366759  31.9894955  93.9788389  81.2852242  24.0669169  90.8793968
  81.8595994  23.8444350  90.1467161  81.8723224  24.1357863  91.6322569
  90.3431819  29.9542895  91.6858344  90.8563701  30.5872887  92.1880054
  90.9933043  29.3544091  91.3201704  81.6121829  26.0973630  84.8989853
  80.7759141  26.4348316  85.2199128  81.4726599  25.9622609  83.9616990
  83.5874910  20.9410417  89.6069037  82.9339322  20.6259435  88.9825652
  83.5455384  20.3186158  90.3328860  84.6986114  31.2229713  81.5222329
  83.7913176  30.9918966  81.7213478  85.1957146  30.4267332  81.7096311
  87.6054193  39.9327220  84.4419016  86.9315892  40.2358917  85.0503973
  87.9920015  40.7356300  84.0924473  86.8212650  27.4292351  93.9316685
  85.9035211  27.6507298  93.7738373  87.2372794  27.5038662  93.0728392
  87.6047698  28.8283767  89.0619365  88.3519517  29.3405164  88.7526487
  87.8739287  28.5067819  89.9223759  85.8774348  31.3242307  86.0446319
  84.9685567  31.0401340  86.1418789  85.9069432  31.7441386  85.1849626
  91.1093615  34.9348897  89.8137487  90.6555942  34.0939807  89.8702677
  90.4787582  35.5710295  90.1512267  90.0526535  25.8640883  91.0438154
  89.3149292  25.3518269  91.3748397  90.3053308  25.4241265  90.2321431
  89.5526554  36.7725394  90.7487305  89.8449529  37.3330451  90.0299671
  90.0625175  37.0653955  91.5040464  76.4462518  29.0447822  90.0261522
  76.2486918  28.4517182  89.3012588  75.8909182  28.7400032  90.7437460
  84.4259242  28.9370928  92.1456115  84.4807852  27.9844764  92.0698591
  83.6150444  29.0930367  92.6297413  85.5750436  32.8651051  83.3834398
  85.1369866  32.1486910  82.9240035  86.3160877  33.0927166  82.8219489
  82.3651602  27.5547988  89.9046494  81.5519467  27.8542158  90.3111686
  82.8610596  27.1603677  90.6220976  84.5160180  37.5505745  91.8380758
  84.4736358  37.7766591  90.9089290  85.4322879  37.3169119  91.9866560
  93.6923550  31.1408248  89.4410717  93.5541449  31.3309844  88.5131906
  93.3359769  31.9027631  89.8978768  81.8565677  25.1266343  95.5207729
  82.4965056  24.9855102  94.8230692  81.0243207  24.8400857  95.1446331
  82.6325980  34.4268774  91.6342721  83.4266579  33.9319094  91.4325296
  81.9217673  33.8986637  91.2710427  87.4520825  36.8086869  95.9855089
  87.5057847  37.3777806  96.7532805  86.5835606  36.9788754  95.6209126
  78.9408744  28.5711855  87.7102474  78.0106332  28.5096311  87.9272436
  79.0366216  28.0487808  86.9139115  78.8594293  25.0966668  90.2980715
  79.1201110  26.0112002  90.1889876  79.6811465  24.6291111  90.4477328
  80.3319218  26.5104425  97.4679540  81.0042272  26.3021788  96.8192189
  79.5049005  26.3126511  97.0284772  86.4108925  30.9747131  97.5442021
  87.3400985  31.1258291  97.3710988  85.9899955  31.0631152  96.6890667
  85.2097256  34.9997796  95.3140558  85.0708342  34.6316580  96.1866496
  84.4211853  35.5145435  95.1424516  85.8045408  40.1006892  86.6566095
  85.9797164  39.6294935  87.4711717  85.1178196  40.7272658  86.8847355
  86.7602472  34.3779398  92.7029396  86.4252304  34.3380168  93.5987046
  86.2606417  33.7124114  92.2299806  80.7346716  29.7847028  98.2281977
  80.5966513  29.0527267  98.8293516  81.6451639  29.6955929  97.9466165
  89.6961663  31.7235433  82.9766456  89.0790834  30.9982261  82.8799508
  89.2278152  32.4844793  82.6333530  83.3629016  29.4966988  97.7165657
  84.0728635  28.8560180  97.6752275  83.3198324  29.7479883  98.6391838
  82.0757950  26.4832206  99.5361296  81.5395307  26.0322944 100.1882893
  81.4874659  26.6178114  98.7931761  80.3706494  43.2496255  93.4305955
  80.6103092  43.8814779  94.1084973  79.5275690  42.8984295  93.7171314
  81.4860209  25.9420857  82.0987760  80.6089675  25.8209658  81.7350007
  81.9617962  25.1506935  81.8466649  73.0062349  30.7298017  92.1929267
  73.6933389  30.4159747  91.6050282  72.8510478  31.6339381  91.9196518
  77.8097071  25.6188213  96.6214291  77.7255260  25.0113883  95.8864701
  76.9879778  26.1097232  96.6223787  84.8834356  39.0575377  95.8347459
  84.8104527  39.8630349  96.3466763  84.4411749  39.2567343  95.0095480
  84.6724135  38.2947147  89.3450280  83.8891657  38.8368828  89.4388505
  85.3716880  38.8121127  89.7444522  87.9820785  24.1041777  91.9884486
  88.4789485  23.3511739  91.6685556  87.2107767  24.1406094  91.4227695
  87.3433039  38.9562211  97.9905618  88.0561011  39.5909676  97.9181519
  86.8523068  39.0526077  97.1745619  89.0650566  32.8613464  89.5622909
  88.1306845  32.9814927  89.3927614  89.2427234  31.9585931  89.2982919
  84.5655754  26.2459160  91.7156170  84.1953542  25.6930200  92.4037076
  85.0614847  25.6417293  91.1631170  92.4523117  28.7030783  90.0972943
  92.9183570  29.5358775  90.0233246  92.9030618  28.2375765  90.8018202
  82.3944953  36.7056655  98.8111188  83.0954412  37.3393138  98.9640583
  81.9240068  37.0471386  98.0506828  90.5199348  35.0474605  87.0959095
  90.7959192  34.9331199  88.0052969  89.6503847  34.6492090  87.0571268
  87.1553412  39.2960956  90.7391909  87.3375807  38.4782611  91.2019661
  87.9786398  39.5128648  90.3016799  87.4895578  38.2229141  88.0006957
  88.0183344  37.7121595  87.3877120  87.7523798  37.9071671  88.8652490
  77.9912671  36.2393010  95.7442291  78.5766108  35.4936698  95.8770195
  77.7937509  36.5496967  96.6278955  80.8451326  39.2744257  90.7604733
  80.1761701  39.7590385  90.2768773  80.7064196  39.5213478  91.6748112
  72.5830325  28.8098610  94.4646734  72.6214425  28.2762201  95.2583852
  72.0770618  28.2833816  93.8457711  84.9856594  41.3088001  97.3587392
  85.5374903  41.4719622  98.1236477  85.3262788  41.8992439  96.6867417
  79.9621088  23.6563151  97.9609276  80.0262414  24.5177982  97.5486674
  79.8988208  23.0437152  97.2281635  76.2138903  27.5362712  87.5400666
  76.5092344  26.6273391  87.4867719  75.3126939  27.5150452  87.2181668
  88.1224982  39.2569976  94.3451074  87.9976121  38.4559716  93.8362019
  88.7804073  39.7516170  93.8565044  79.7433150  25.6118709  93.5228214
  79.0219736  26.2254677  93.3835687  80.5326406  26.1476474  93.4444860
  90.1859890  37.0578996  95.9730624  89.2390226  36.9384348  95.9008951
  90.5342663  36.1701494  96.0556885  77.9426745  25.2176810  87.6639991
  77.6139451  24.3374189  87.4815097  78.2966115  25.1624479  88.5516380
  87.1906323  36.8531713  92.1734976  87.0431286  35.9248420  92.3542546
  88.0159817  36.8751803  91.6892051  81.0568568  25.5049780  88.0315468
  81.3964640  26.0335701  87.3094077  81.5040688  25.8430186  88.8074035
  90.7940445  37.6760271  93.2599849  91.7186993  37.4703133  93.1224300
  90.6255749  37.4276673  94.1689190  83.0436715  24.0024401  86.2308761
  83.7645077  24.3805654  85.7272478  82.4202019  24.7213278  86.3343739
  87.1867838  24.7069550  87.1667093  87.4031452  25.5894188  86.8655922
  86.7061905  24.3155764  86.4372735  81.9267059  27.6655264  93.7437838
  81.7811640  27.9795567  94.6362120  81.4492263  28.2840164  93.1908737
  83.7863442  24.6557812  93.7918728  83.7725011  23.7598905  93.4551026
  84.5035870  24.6628475  94.4257014  85.6389573  25.0895152  95.8371855
  85.3807351  26.0112222  95.8356185  85.1074613  24.6925586  96.5272319
  90.5835762  38.1945939  88.6161940  90.7572639  37.6292361  87.8635793
  91.0764653  38.9946834  88.4341430  76.4012721  30.2060608  96.6825499
  75.8566189  30.9820416  96.8145774  77.2792071  30.5531412  96.5244621
  83.1900338  23.5372192  89.0606298  83.3116249  22.6088838  89.2597185
  82.9002380  23.5510878  88.1484613  86.0591528  21.2227102  92.1973018
  86.0813225  21.2866435  91.2424997  86.4759587  20.3831611  92.3913524
  96.4375153  30.9582362  90.2352240  96.8806299  30.2089687  89.8371363
  95.5601663  30.9492498  89.8525972  91.5710934  37.5112703  85.7158839
  92.2661839  38.1319396  85.9346153  91.9134084  36.6608054  85.9911217
  77.1878743  29.3330504  99.5755656  76.4460479  29.4813140 100.1620287
  76.8671487  29.5938770  98.7122406  93.4702357  34.9612409  87.2446169
  93.9953681  35.2999682  86.5195490  93.3824710  34.0259424  87.0609304
  85.1322406  38.8746482  99.3736046  85.4409532  38.6295629 100.2458746
  85.9297888  39.0793121  98.8854916  85.1543018  41.0284392  91.6041423
  84.7148008  40.5360771  92.2974279  85.9051135  40.4857360  91.3633498
  77.6335357  37.2195933  91.6066051  78.4593377  36.9199705  91.2264694
  77.2829409  36.4503555  92.0555839  82.6016890  36.5722401  93.6763724
  81.9796899  35.9093106  93.3765952  83.2721757  36.5983533  92.9937372
  75.8343962  35.1382259  92.5654984  74.9975870  34.7104434  92.3838986
  75.8067607  35.3314703  93.5025776  82.1630397  35.1226325  87.1522185
  82.3118517  35.8061789  86.4988858  82.9696840  35.1031415  87.6671641
  79.9183030  31.1491502  88.1583254  79.6729072  30.2453832  88.3563464
  80.0878944  31.1508653  87.2162732  79.1878677  26.8819860  85.6569415
  78.4947922  26.9564215  85.0009451  78.9430429  26.1180203  86.1790932
  85.6625802  37.6174455  84.6233932  85.0899770  38.2364642  84.1704404
  86.2358596  38.1673817  85.1573854  88.8823062  37.9011605  85.7542515
  89.8153735  37.8357167  85.9575390  88.7946275  38.7367872  85.2957047
  91.5111079  37.2177475  82.7146462  91.4324710  36.8837339  83.6082220
  92.3320746  37.7099243  82.7137934  86.0472601  28.9535268  81.9649985
  86.9931706  28.8241476  82.0338403  85.6686846  28.2149930  82.4419413
  84.2315518  26.8785244  81.9004870  83.3246973  26.5818357  81.9767584
  84.5091499  26.5815062  81.0339156  75.1493458  28.1991607  92.3503916
  74.8296243  27.3456916  92.0578290  74.6026887  28.4140186  93.1061884
  78.9273366  30.9154048  96.0673423  79.1459376  31.8471156  96.0861457
  79.3399140  30.5562023  96.8528227  85.8477584  21.4222134  88.0549111
  85.0378312  21.0769219  88.4304357  86.5362001  21.1129678  88.6436723
  87.7768132  20.5000181  89.6773408  88.3299171  20.9195634  90.3363431
  88.0138218  19.5735929  89.7196364  83.0014303  23.7372179  82.0416849
  83.8633467  24.0627078  82.3012667  83.1864647  22.9503675  81.5289915
  75.0181718  31.8194519  94.3197038  74.3245190  31.4048472  93.8066992
  75.7654709  31.8615055  93.7230457  91.1546939  22.6100706  89.1852072
  90.5745608  23.2685510  88.8030125  90.8882872  21.7878050  88.7739490
  76.9318461  31.7512773  92.1963053  76.9089149  31.8500460  91.2444936
  77.2419098  32.5977924  92.5180219  79.5905839  33.8088928  96.3109667
  80.5449092  33.7772870  96.2439599  79.3918362  33.3479552  97.1259893
  80.1805221  32.3790044  98.8780465  80.9998110  32.8734123  98.9015302
  80.4542029  31.4622012  98.8498032  89.9371817  24.7700796  88.2408420
  89.0497672  25.0550447  88.0228615  90.3525806  24.6094560  87.3935697
  77.9456068  39.3508547  93.3279865  77.8110536  38.5908948  92.7617863
  77.5288130  40.0749447  92.8608654  89.0815031  34.5345471  82.3356440
  89.7850881  34.7395473  82.9514096  88.3577679  35.1022233  82.6005524
  89.9112841  30.2855332  88.4558711  89.8548042  30.7423884  87.6166343
  90.4641183  29.5246017  88.2781553  93.7217647  26.0745064  89.2808830
  93.4654581  25.6741700  90.1117038  93.0970515  26.7888858  89.1558969
  81.1025194  40.2477864  93.5398308  80.9857578  41.1923297  93.4376998
  80.2817640  39.9451426  93.9284107  90.9901728  34.9728000  84.3854901
  91.8247332  34.5409198  84.2032375  90.8286071  34.8010014  85.3131795
  90.6447620  31.4760113  85.7511240  90.5896424  31.3104385  84.8099684
  90.0193676  32.1836146  85.9073430  75.4340135  26.7128178  99.5772662
  76.0798999  26.2027132 100.0659887  75.2257286  27.4496859 100.1516087
  83.9543746  20.9768222  85.3296558  83.9422416  21.9210062  85.4864829
  84.8467168  20.7938368  85.0356019  82.1279708  40.9006126  96.7554236
  83.0306954  40.9329736  97.0720731  81.9017078  39.9706577  96.7700572
  83.8833310  39.6537113  93.4164315  82.9328941  39.6538974  93.3028687
  84.1865796  38.9069847  92.9000349  87.7695865  17.5710999  89.5842495
  87.0028261  17.0169486  89.7299177  88.1806570  17.6432868  90.4456647
  99.6186003  45.4897651  94.4810077 100.2564413  45.3704398  93.7773417
  99.5006846  46.4378495  94.5398029  96.4275709  45.4425079  94.4171602
  96.0894221  45.3266144  93.5292137  97.2965478  45.0416244  94.3972608
  92.2862525  47.2960556  90.4068493  91.7227390  47.2050493  89.6384781
  92.1714920  46.4760460  90.8870985  89.8326957  48.7911747  93.2452713
  90.6248249  48.4502572  92.8299013  90.0723607  48.9006722  94.1654867
  97.8662084  50.9631523  85.7182958  97.2150064  51.5485604  85.3316972
  98.6606447  51.4937718  85.7777995  91.7917711  48.0520661  86.1170092
  92.5648587  47.5049648  85.9782968  92.1443110  48.9164910  86.3284554
  93.6302754  49.3797043  99.3236991  93.3392620  50.2842674  99.2083658
  94.2659738  49.4213570 100.0381061  94.5558960  46.7573891  95.9138351
  95.1522533  46.5329914  95.1995314  94.6133932  46.0158637  96.5163799
  94.1283989  44.2113327  83.7488542  94.3809510  43.6894848  82.9872005
  93.1908548  44.0479472  83.8515226  99.1727272  43.2149105  91.5563285
  99.9590361  42.7968528  91.2053702  99.4365976  44.1195197  91.7244934
  99.3437349  48.6521955  86.2551942  98.7083182  48.7256582  86.9672847
  99.0134755  49.2415554  85.5771021  93.8480278  46.1141433  85.9512917
  93.7316536  45.4386336  86.6194001  93.9582537  45.6273807  85.1345070
  96.1911819  45.5751580  89.6559606  95.8270026  45.0482201  90.3672528
  97.0478934  45.1850049  89.4826092  95.8317306  40.6041479  84.6520955
  95.9991708  41.4721716  85.0191426  95.6414475  40.7668761  83.7282244
  98.5892639  49.0658458  96.3186785  98.2893362  49.9683497  96.2102592
  98.2443698  48.7990641  97.1707938  92.0405120  45.5172255  92.3523490
  91.1155617  45.3848469  92.5601181  92.2889533  46.2966474  92.8493432
  95.8106526  43.0599137  85.6367622  95.6906152  43.5056188  86.4753102
  95.1159115  43.4084455  85.0781160  89.4013931  45.1605529  93.1867279
  89.5306312  45.4140008  94.1006690  88.7211383  45.7533237  92.8671934
  93.5713418  55.8302779  89.2857753  93.4937448  56.7810604  89.3646233
  92.9675062  55.4848651  89.9432679 101.5091593  43.5320610  86.4647956
 102.4209449  43.7647997  86.2895653 101.0001240  44.1157654  85.9023034
  94.3177021  45.8116097 101.5037087  95.0591705  46.3501141 101.2271910
  93.6114006  46.4382386 101.6608639  96.1463430  42.8917845  97.4742805
  96.9924625  43.3157258  97.6177454  96.0862068  42.2351469  98.1681368
 100.1161175  48.5146429  93.8561537  99.4870037  48.6792143  93.1537605
  99.7286837  48.9288038  94.6272501 103.9950407  49.4500866  91.2105901
 103.3101445  49.8299768  90.6602934 104.0794256  50.0596193  91.9437849
  95.6689137  48.2520837  91.1211622  96.1327482  48.5308540  90.3316245
  95.4045935  47.3504281  90.9384713  92.5613218  47.7992318  94.0591385
  93.1314575  48.2279587  93.4208870  93.1521330  47.5174903  94.7575571
  94.6058023  44.3743989  87.9301187  95.3082066  44.8265033  88.3975114
  94.2738651  43.7327808  88.5581080  88.3483357  42.6327542  93.2318321
  87.5582411  42.8885070  92.7558432  88.8394604  43.4475879  93.3370361
 102.3647166  49.9732781  95.9823602 103.1864610  49.5712968  95.7006283
 102.3609569  49.8701015  96.9339718  90.2998102  42.9972121  90.1901798
  89.5029265  43.1090815  90.7085293  90.0723694  43.3358773  89.3242688
  96.1303770  49.5216824  98.1384312  96.1948202  49.9837231  98.9742484
  95.4214694  48.8914189  98.2666622  86.6321060  42.8858032  95.6633312
  86.8829098  43.7705042  95.9290888  87.1680608  42.7062634  94.8908404
  95.8451787  51.1884932  88.0063293  95.7097462  52.0336467  88.4348140
  96.3861600  51.3904209  87.2429226  89.2981185  48.7060370  88.5791218
  89.8105705  49.5003620  88.7296782  89.9503898  48.0086660  88.5124819
  91.1076069  51.8226126  90.6613971  91.2842698  52.7444091  90.4734955
  91.9032903  51.5084545  91.0908351  90.3928426  43.8690758 100.5376134
  90.2781941  42.9676015 100.8383233  89.5372944  44.1154455 100.1860951
  92.2307385  53.3404300  96.6624313  92.7814810  53.2121363  95.8901307
  91.3918861  53.6399189  96.3119206  96.0274556  49.6055428 101.0068544
  96.5602893  48.8443716 100.7767852  95.4988637  49.3129079 101.7492699
  87.2630102  47.0349024  89.3550788  88.1005324  47.4446032  89.1384496
  87.4408369  46.0948466  89.3250982  99.1594534  44.7024105  85.0434621
  98.6441157  45.4728709  85.2823009  98.8871842  44.0289241  85.6667683
  96.7441645  39.5473805  90.1019860  95.8883241  39.1580656  89.9225498
  97.1568596  39.6265766  89.2419645  94.5183677  37.1658878  93.5077601
  95.3836674  36.9701687  93.1483491  94.5861186  36.9369230  94.4346958
 104.1328808  47.4556459  86.9787795 103.3558251  47.1167619  86.5342957
 104.8120289  47.4609082  86.3042760  98.9480837  42.5751197  86.8694402
  98.6430972  42.8897346  87.7204546  99.9011279  42.6532617  86.9121735
  97.3927269  48.7341420  88.5187356  96.8648630  47.9994180  88.2060594
  96.8914771  49.5116096  88.2727325 102.3720115  46.9290440  93.6354403
 101.7143789  47.6189702  93.7234531 103.1760514  47.3186872  93.9788389
  92.1245996  39.3961086  90.8793968  92.6989748  39.1736268  90.1467161
  92.7116979  39.4649781  91.6322569 101.1825574  45.2834813  91.6858344
 101.6957455  45.9164805  92.1880054 101.8326797  44.6836009  91.3201704
  92.4515583  41.4265547  84.8989853  91.6152896  41.7640234  85.2199128
  92.3120353  41.2914527  83.9616990  94.4268664  36.2702335  89.6069037
  93.7733076  35.9551352  88.9825652  94.3849138  35.6478076  90.3328860
  95.5379869  46.5521630  81.5222329  94.6306931  46.3210884  81.7213478
  96.0350901  45.7559250  81.7096311  98.4447948  55.2619137  84.4419016
  97.7709647  55.5650834  85.0503973  98.8313770  56.0648218  84.0924473
  97.6606404  42.7584269  93.9316685  96.7428966  42.9799216  93.7738373
  98.0766548  42.8330579  93.0728392  98.4441452  44.1575684  89.0619365
  99.1913271  44.6697082  88.7526487  98.7133042  43.8359737  89.9223759
  96.7168102  46.6534225  86.0446319  95.8079322  46.3693258  86.1418789
  96.7463186  47.0733304  85.1849626 101.9487370  50.2640815  89.8137487
 101.4949697  49.4231724  89.8702677 101.3181336  50.9002213  90.1512267
 100.8920289  41.1932801  91.0438154 100.1543046  40.6810187  91.3748397
 101.1447063  40.7533182  90.2321431 100.3920309  52.1017311  90.7487305
 100.6843283  52.6622368  90.0299671 100.9018930  52.3945872  91.5040464
  87.2856273  44.3739739  90.0261522  87.0880673  43.7809100  89.3012588
  86.7302937  44.0691949  90.7437460  95.2652996  44.2662846  92.1456115
  95.3201606  43.3136682  92.0698591  94.4544198  44.4222285  92.6297413
  96.4144190  48.1942969  83.3834398  95.9763620  47.4778828  82.9240035
  97.1554631  48.4219084  82.8219489  93.2045356  42.8839905  89.9046494
  92.3913222  43.1834076  90.3111686  93.7004350  42.4895594  90.6220976
  95.3553934  52.8797662  91.8380758  95.3130113  53.1058509  90.9089290
  96.2716633  52.6461037  91.9866560 104.5317305  46.4700166  89.4410717
 104.3935204  46.6601762  88.5131906 104.1753524  47.2319549  89.8978768
  92.6959431  40.4558261  95.5207729  93.3358810  40.3147020  94.8230692
  91.8636962  40.1692774  95.1446331  93.4719735  49.7560691  91.6342721
  94.2660333  49.2611012  91.4325296  92.7611427  49.2278555  91.2710427
  98.2914579  52.1378787  95.9855089  98.3451602  52.7069723  96.7532805
  97.4229361  52.3080672  95.6209126  89.7802498  43.9003773  87.7102474
  88.8500087  43.8388229  87.9272436  89.8759970  43.3779726  86.9139115
  89.6988047  40.4258586  90.2980715  89.9594865  41.3403919  90.1889876
  90.5205220  39.9583029  90.4477328  91.1712973  41.8396343  97.4679540
  91.8436026  41.6313705  96.8192189  90.3442759  41.6418429  97.0284772
  97.2502679  46.3039049  97.5442021  98.1794739  46.4550209  97.3710988
  96.8293709  46.3923070  96.6890667  96.0491011  50.3289713  95.3140558
  95.9102097  49.9608498  96.1866496  95.2605607  50.8437353  95.1424516
  96.6439163  55.4298810  86.6566095  96.8190919  54.9586853  87.4711717
  95.9571951  56.0564576  86.8847355  97.5996226  49.7071316  92.7029396
  97.2646059  49.6672086  93.5987046  97.1000172  49.0416032  92.2299806
  91.5740470  45.1138946  98.2281977  91.4360268  44.3819185  98.8293516
  92.4845394  45.0247846  97.9466165 100.5355418  47.0527350  82.9766456
  99.9184588  46.3274179  82.8799508 100.0671906  47.8136711  82.6333530
  94.2022771  44.8258905  97.7165657  94.9122389  44.1852098  97.6752275
  94.1592079  45.0771800  98.6391838  92.9151705  41.8124123  99.5361296
  92.3789062  41.3614862 100.1882893  92.3268413  41.9470032  98.7931761
  91.2100248  58.5788173  93.4305955  91.4496846  59.2106697  94.1084973
  90.3669445  58.2276213  93.7171314  92.3253964  41.2712775  82.0987760
  91.4483430  41.1501576  81.7350007  92.8011717  40.4798853  81.8466649
  83.8456104  46.0589934  92.1929267  84.5327144  45.7451664  91.6050282
  83.6904232  46.9631299  91.9196518  88.6490826  40.9480131  96.6214291
  88.5649015  40.3405801  95.8864701  87.8273532  41.4389149  96.6223787
  95.7228110  54.3867295  95.8347459  95.6498282  55.1922267  96.3466763
  95.2805503  54.5859261  95.0095480  95.5117890  53.6239065  89.3450280
  94.7285412  54.1660745  89.4388505  96.2110635  54.1413045  89.7444522
  98.8214540  39.4333695  91.9884486  99.3183239  38.6803657  91.6685556
  98.0501521  39.4698011  91.4227695  98.1826794  54.2854129  97.9905618
  98.8954766  54.9201594  97.9181519  97.6916822  54.3817995  97.1745619
  99.9044320  48.1905382  89.5622909  98.9700599  48.3106844  89.3927614
 100.0820989  47.2877849  89.2982919  95.4049509  41.5751078  91.7156170
  95.0347296  41.0222118  92.4037076  95.9008601  40.9709211  91.1631170
 103.2916872  44.0322701  90.0972943 103.7577324  44.8650693  90.0233246
 103.7424372  43.5667683  90.8018202  93.2338707  52.0348573  98.8111188
  93.9348167  52.6685056  98.9640583  92.7633822  52.3763304  98.0506828
 101.3593103  50.3766522  87.0959095 101.6352947  50.2623117  88.0052969
 100.4897602  49.9784007  87.0571268  97.9947167  54.6252873  90.7391909
  98.1769561  53.8074529  91.2019661  98.8180153  54.8420565  90.3016799
  98.3289332  53.5521058  88.0006957  98.8577099  53.0413513  87.3877120
  98.5917552  53.2363589  88.8652490  88.8306425  51.5684928  95.7442291
  89.4159862  50.8228616  95.8770195  88.6331264  51.8788884  96.6278955
  91.6845080  54.6036175  90.7604733  91.0155456  55.0882303  90.2768773
  91.5457950  54.8505395  91.6748112  83.4224080  44.1390528  94.4646734
  83.4608179  43.6054119  95.2583852  82.9164373  43.6125733  93.8457711
  95.8250349  56.6379919  97.3587392  96.3768657  56.8011540  98.1236477
  96.1656542  57.2284356  96.6867417  90.8014842  38.9855068  97.9609276
  90.8656169  39.8469899  97.5486674  90.7381962  38.3729070  97.2281635
  87.0532657  42.8654630  87.5400666  87.3486099  41.9565308  87.4867719
  86.1520693  42.8442369  87.2181668  98.9618736  54.5861894  94.3451074
  98.8369876  53.7851634  93.8362019  99.6197827  55.0808087  93.8565044
  90.5826904  40.9410627  93.5228214  89.8613490  41.5546594  93.3835687
  91.3720160  41.4768391  93.4444860 101.0253645  52.3870914  95.9730624
 100.0783980  52.2676265  95.9008951 101.3736418  51.4993412  96.0556885
  88.7820499  40.5468728  87.6639991  88.4533205  39.6666107  87.4815097
  89.1359870  40.4916396  88.5516380  98.0300078  52.1823630  92.1734976
  97.8825040  51.2540338  92.3542546  98.8553571  52.2043721  91.6892051
  91.8962322  40.8341697  88.0315468  92.2358395  41.3627619  87.3094077
  92.3434443  41.1722104  88.8074035 101.6334200  53.0052189  93.2599849
 102.5580747  52.7995050  93.1224300 101.4649503  52.7568590  94.1689190
  93.8830469  39.3316319  86.2308761  94.6038832  39.7097572  85.7272478
  93.2595774  40.0505196  86.3343739  98.0261592  40.0361468  87.1667093
  98.2425207  40.9186106  86.8655922  97.5455659  39.6447681  86.4372735
  92.7660814  42.9947181  93.7437838  92.6205394  43.3087484  94.6362120
  92.2886017  43.6132082  93.1908737  94.6257197  39.9849729  93.7918728
  94.6118765  39.0890823  93.4551026  95.3429625  39.9920393  94.4257014
  96.4783327  40.4187069  95.8371855  96.2201105  41.3404140  95.8356185
  95.9468368  40.0217504  96.5272319 101.4229516  53.5237857  88.6161940
 101.5966394  52.9584279  87.8635793 101.9158407  54.3238751  88.4341430
  87.2406476  45.5352526  96.6825499  86.6959944  46.3112334  96.8145774
  88.1185826  45.8823330  96.5244621  94.0294092  38.8664109  89.0606298
  94.1510004  37.9380756  89.2597185  93.7396135  38.8802795  88.1484613
  96.8985283  36.5519020  92.1973018  96.9206980  36.6158353  91.2424997
  97.3153342  35.7123529  92.3913524 102.4104688  52.8404621  85.7158839
 103.1055593  53.4611314  85.9346153 102.7527839  51.9899972  85.9911217
  88.0272498  44.6622422  99.5755656  87.2854234  44.8105057 100.1620287
  87.7065242  44.9230687  98.7122406 104.3096112  50.2904326  87.2446169
 104.8347436  50.6291599  86.5195490 104.2218464  49.3551342  87.0609304
  95.9936772  56.3576310  91.6041423  95.5541763  55.8652688  92.2974279
  96.7444889  55.8149277  91.3633498  88.4729111  52.5487851  91.6066051
  89.2987131  52.2491622  91.2264694  88.1223163  51.7795473  92.0555839
  93.4410645  51.9014319  93.6763724  92.8190654  51.2385024  93.3765952
  94.1115511  51.9275451  92.9937372  86.6737716  50.4674177  92.5654984
  85.8369625  50.0396351  92.3838986  86.6461362  50.6606620  93.5025776
  93.0024151  50.4518242  87.1522185  93.1512272  51.1353707  86.4988858
  93.8090595  50.4323332  87.6671641  90.7576784  46.4783420  88.1583254
  90.5122826  45.5745750  88.3563464  90.9272699  46.4800570  87.2162732
  90.0272432  42.2111777  85.6569415  89.3341677  42.2856132  85.0009451
  89.7824184  41.4472121  86.1790932  96.5019557  52.9466373  84.6233932
  95.9293524  53.5656560  84.1704404  97.0752351  53.4965734  85.1573854
  99.7216817  53.2303523  85.7542515 100.6547490  53.1649084  85.9575390
  99.6340030  54.0659790  85.2957047 102.3504833  52.5469393  82.7146462
 102.2718465  52.2129257  83.6082220 103.1714500  53.0391161  82.7137934
  96.8866355  44.2827185  81.9649985  97.8325460  44.1533393  82.0338403
  96.5080600  43.5441847  82.4419413  95.0709273  42.2077162  81.9004870
  94.1640728  41.9110274  81.9767584  95.3485254  41.9106980  81.0339156
  85.9887213  43.5283525  92.3503916  85.6689997  42.6748833  92.0578290
  85.4420641  43.7432103  93.1061884  89.7667121  46.2445966  96.0673423
  89.9853130  47.1763074  96.0861457  90.1792894  45.8853941  96.8528227
  96.6871338  36.7514051  88.0549111  95.8772067  36.4061136  88.4304357
  97.3755755  36.4421595  88.6436723  98.6161887  35.8292098  89.6773408
  99.1692925  36.2487552  90.3363431  98.8531973  34.9027846  89.7196364
  93.8408057  39.0664097  82.0416849  94.7027221  39.3918995  82.3012667
  94.0258401  38.2795593  81.5289915  85.8575473  47.1486437  94.3197038
  85.1638944  46.7340389  93.8066992  86.6048464  47.1906973  93.7230457
 101.9940694  37.9392623  89.1852072 101.4139363  38.5977427  88.8030125
 101.7276626  37.1169968  88.7739490  87.7712215  47.0804690  92.1963053
  87.7482904  47.1792378  91.2444936  88.0812852  47.9269841  92.5180219
  90.4299593  49.1380845  96.3109667  91.3842847  49.1064788  96.2439599
  90.2312117  48.6771469  97.1259893  91.0198976  47.7081962  98.8780465
  91.8391864  48.2026040  98.9015302  91.2935783  46.7913930  98.8498032
 100.7765572  40.0992714  88.2408420  99.8891427  40.3842364  88.0228615
 101.1919561  39.9386477  87.3935697  88.7849822  54.6800465  93.3279865
  88.6504290  53.9200866  92.7617863  88.3681884  55.4041365  92.8608654
  99.9208785  49.8637388  82.3356440 100.6244635  50.0687391  82.9514096
  99.1971434  50.4314150  82.6005524 100.7506595  45.6147250  88.4558711
 100.6941797  46.0715801  87.6166343 101.3034938  44.8537934  88.2781553
 104.5611401  41.4036982  89.2808830 104.3048336  41.0033617  90.1117038
 103.9364269  42.1180776  89.1558969  91.9418948  55.5769782  93.5398308
  91.8251332  56.5215214  93.4376998  91.1211394  55.2743344  93.9284107
 101.8295483  50.3019918  84.3854901 102.6641087  49.8701116  84.2032375
 101.6679826  50.1301931  85.3131795 101.4841375  46.8052031  85.7511240
 101.4290179  46.6396302  84.8099684 100.8587430  47.5128064  85.9073430
  86.2733890  42.0420095  99.5772662  86.9192753  41.5319049 100.0659887
  86.0651041  42.7788777 100.1516087  94.7937500  36.3060140  85.3296558
  94.7816170  37.2501980  85.4864829  95.6860922  36.1230285  85.0356019
  92.9673462  56.2298044  96.7554236  93.8700709  56.2621654  97.0720731
  92.7410832  55.2998495  96.7700572  94.7227064  54.9829030  93.4164315
  93.7722695  54.9830892  93.3028687  95.0259550  54.2361765  92.9000349
  98.6089620  32.9002917  89.5842495  97.8422015  32.3461403  89.7299177
  99.0200325  32.9724785  90.4456647 103.1256280  62.6252473  90.4068493
 102.5621145  62.5342410  89.6384781 103.0108675  61.8052378  90.8870985
 102.6311466  63.3812578  86.1170092 103.4042342  62.8341565  85.9782968
 102.9836864  64.2456827  86.3284554 104.9677743  59.5405244  83.7488542
 105.2203264  59.0186766  82.9872005 104.0302302  59.3771390  83.8515226
 104.6874032  61.4433350  85.9512917 104.5710290  60.7678254  86.6194001
 104.7976292  60.9565724  85.1345070 100.2407686  60.4897446  93.1867279
 100.3700067  60.7431925  94.1006690  99.5605137  61.0825154  92.8671934
  99.1877111  57.9619459  93.2318321  98.3976165  58.2176988  92.7558432
  99.6788359  58.7767797  93.3370361 101.1391857  58.3264039  90.1901798
 100.3423020  58.4382733  90.7085293 100.9117449  58.6650691  89.3242688
  97.4714814  58.2149950  95.6633312  97.7222853  59.0996960  95.9290888
  98.0074363  58.0354551  94.8908404 100.1374939  64.0352287  88.5791218
 100.6499460  64.8295538  88.7296782 100.7897652  63.3378578  88.5124819
  98.1023856  62.3640942  89.3550788  98.9399078  62.7737950  89.1384496
  98.2802124  61.4240384  89.3250982 102.9639751  54.7253004  90.8793968
 103.5383503  54.5028185  90.1467161 103.5510733  54.7941698  91.6322569
 103.2909338  56.7557465  84.8989853 102.4546650  57.0932152  85.2199128
 103.1514108  56.6206445  83.9616990 105.2662419  51.5994253  89.6069037
 104.6126831  51.2843270  88.9825652 105.2242893  50.9769993  90.3328860
  98.1250027  59.7031657  90.0261522  97.9274427  59.1101018  89.3012588
  97.5696691  59.3983867  90.7437460 104.0439111  58.2131823  89.9046494
 103.2306976  58.5125994  90.3111686 104.5398105  57.8187512  90.6220976
 103.5353186  55.7850179  95.5207729 104.1752565  55.6438938  94.8230692
 102.7030716  55.4984692  95.1446331 100.6196253  59.2295691  87.7102474
  99.6893841  59.1680146  87.9272436 100.7153725  58.7071644  86.9139115
 100.5381802  55.7550504  90.2980715 100.7988619  56.6695837  90.1889876
 101.3598974  55.2874946  90.4477328 103.1647718  56.6004692  82.0987760
 102.2877184  56.4793493  81.7350007 103.6405471  55.8090771  81.8466649
  94.6849858  61.3881852  92.1929267  95.3720898  61.0743582  91.6050282
  94.5297987  62.2923217  91.9196518  99.4884580  56.2772049  96.6214291
  99.4042769  55.6697718  95.8864701  98.6667287  56.7681067  96.6223787
  94.2617834  59.4682445  94.4646734  94.3001934  58.9346036  95.2583852
  93.7558127  58.9417651  93.8457711  97.8926412  58.1946548  87.5400666
  98.1879853  57.2857226  87.4867719  96.9914448  58.1734287  87.2181668
 101.4220659  56.2702544  93.5228214 100.7007245  56.8838512  93.3835687
 102.2113915  56.8060309  93.4444860  99.6214254  55.8760645  87.6639991
  99.2926960  54.9958024  87.4815097  99.9753624  55.8208314  88.5516380
 102.7356077  56.1633615  88.0315468 103.0752149  56.6919536  87.3094077
 103.1828197  56.5014021  88.8074035 104.7224224  54.6608237  86.2308761
 105.4432586  55.0389489  85.7272478 104.0989528  55.3797114  86.3343739
 104.8687847  54.1956027  89.0606298 104.9903758  53.2672673  89.2597185
 104.5789889  54.2094713  88.1484613 103.8417906  65.7810160  87.1522185
 103.9906026  66.4645624  86.4988858 104.6484349  65.7615250  87.6671641
 101.5970539  61.8075337  88.1583254 101.3516581  60.9037667  88.3563464
 101.7666453  61.8092488  87.2162732 100.8666186  57.5403695  85.6569415
 100.1735431  57.6148050  85.0009451 100.6217938  56.7764039  86.1790932
  96.8280967  58.8575443  92.3503916  96.5083752  58.0040751  92.0578290
  96.2814396  59.0724021  93.1061884 104.6801812  54.3956015  82.0416849
 105.5420976  54.7210913  82.3012667 104.8652156  53.6087511  81.5289915
  96.6969227  62.4778354  94.3197038  96.0032699  62.0632307  93.8066992
  97.4442218  62.5198891  93.7230457  98.6105970  62.4096608  92.1963053
  98.5876658  62.5084295  91.2444936  98.9206606  63.2561759  92.5180219
  69.5312740   4.9266460  80.1551262  69.7709339   5.5584984  80.8330280
  68.6881937   4.5754500  80.4416621  81.4468772   8.9730761  77.1313800
  80.8833637   8.8820698  76.3630087  81.3321167   8.1530665  77.6116292
  78.9933204  10.4681952  79.9698020  79.7854496  10.1272777  79.5544319
  79.2329854  10.5776927  80.8900173  87.0268331  12.6401728  72.4428264
  86.3756310  13.2255809  72.0562278  87.8212693  13.1707923  72.5023302
  80.9523958   9.7290865  72.8415399  81.7254834   9.1819853  72.7028275
  81.3049357  10.5935115  73.0529860  82.7909000  11.0567248  86.0482298
  82.4998866  11.9612879  85.9328964  83.4265985  11.0983775  86.7626368
  88.5043596  10.3292160  72.9797249  87.8689429  10.4026787  73.6918153
  88.1741002  10.9185759  72.3016328  87.7498885  10.7428663  83.0432092
  87.4499609  11.6453702  82.9347899  87.4049945  10.4760846  83.8953245
  81.2011367   7.1942460  79.0768796  80.2761863   7.0618674  79.2846488
  81.4495780   7.9736679  79.5738739  78.5620178   6.8375734  79.9112585
  78.6912559   7.0910213  80.8251997  77.8817629   7.4303442  79.5917240
  82.7319665  17.5072984  76.0103059  82.6543695  18.4580809  76.0891540
  82.1281309  17.1618856  76.6677986  89.2767422  10.1916633  80.5806844
  88.6476284  10.3562348  79.8782912  88.8893084  10.6058243  81.3517808
  84.8295383   9.9291042  77.8456929  85.2933729  10.2078744  77.0561551
  84.5652182   9.0274486  77.6630020  81.7219465   9.4762523  80.7836692
  82.2920822   9.9049791  80.1454177  82.3127576   9.1945108  81.4820878
  91.5253413  11.6502986  82.7068908  92.3470857  11.2483173  82.4251590
  91.5215816  11.5471220  83.6585024  85.2910017  11.1987029  84.8629619
  85.3554449  11.6607436  85.6987791  84.5820940  10.5684394  84.9911929
  85.0058034  12.8655137  74.7308599  84.8703709  13.7106672  75.1593447
  85.5467847  13.0674414  73.9674533  78.4587432  10.3830575  75.3036524
  78.9711952  11.1773825  75.4542089  79.1110144   9.6856865  75.2370126
  80.2682316  13.4996331  77.3859277  80.4448945  14.4214296  77.1980261
  81.0639150  13.1854750  77.8153657  86.6326511  13.4878703  88.8608941
  86.1890365  12.7015082  88.5429846  87.2943724  13.6757854  88.1952832
  81.3913632  15.0174505  83.3869620  81.9421057  14.8891568  82.6146614
  80.5525108  15.3169394  83.0364513  85.1880803  11.2825632  87.7313851
  85.7209140  10.5213921  87.5013159  84.6594884  10.9899284  88.4738005
  76.4236348   8.7119229  76.0796095  77.2611570   9.1216237  75.8629803
  76.6014616   7.7718671  76.0496289  86.5533515  10.4111625  75.2432663
  86.0254877   9.6764384  74.9305900  86.0521018  11.1886301  74.9972631
  87.6054195  16.9389342  71.1664322  86.9315893  17.2421039  71.7749280
  87.9920017  17.7418423  70.8169779  91.1093617  11.9411020  76.5382794
  90.6555944  11.1001929  76.5947984  90.4787583  12.5772418  76.8757574
  89.5526556  13.7787516  77.4732612  89.8449530  14.3392573  76.7544977
  90.0625176  14.0716077  78.2285771  76.4462519   6.0509944  76.7506828
  76.2486919   5.4579305  76.0257895  75.8909183   5.7462154  77.4682767
  85.5750437   9.8713174  70.1079705  85.1369867   9.1549033  69.6485342
  86.3160878  10.0989289  69.5464796  84.5160181  14.5567867  78.5626065
  84.4736360  14.7828714  77.6334597  85.4322880  14.3231242  78.7111866
  82.6325982  11.4330896  78.3588028  83.4266580  10.9381216  78.1570603
  81.9217674  10.9048759  77.9955733  87.4520826  13.8148992  82.7100395
  87.5057848  14.3839928  83.4778111  86.5835608  13.9850877  82.3454432
  85.2097258  12.0059918  82.0385865  85.0708343  11.6378703  82.9111803
  84.4211854  12.5207558  81.8669823  85.8045410  17.1069015  73.3811401
  85.9797165  16.6357058  74.1957024  85.1178198  17.7334781  73.6092662
  86.7602473  11.3841521  79.4274703  86.4252305  11.3442291  80.3232352
  86.2606419  10.7186237  78.9545113  80.3706495  20.2558378  80.1551262
  80.6103093  20.8876902  80.8330280  79.5275691  19.9046418  80.4416621
  73.0062351   7.7360139  78.9174574  73.6933390   7.4221869  78.3295589
  72.8510479   8.6401504  78.6441825  84.8834357  16.0637500  82.5592766
  84.8104528  16.8692471  83.0712070  84.4411750  16.2629466  81.7340787
  84.6724136  15.3009270  76.0695587  83.8891658  15.8430950  76.1633812
  85.3716882  15.8183250  76.4689828  87.3433040  15.9624334  84.7150924
  88.0561013  16.5971799  84.6426826  86.8523069  16.0588200  83.8990926
  82.3944954  13.7118777  85.5356495  83.0954413  14.3455260  85.6885889
  81.9240069  14.0533509  84.7752134  90.5199350  12.0536727  73.8204402
  90.7959194  11.9393322  74.7298276  89.6503848  11.6554212  73.7816575
  87.1553414  16.3023078  77.4637216  87.3375808  15.4844734  77.9264968
  87.9786400  16.5190770  77.0262106  87.4895579  15.2291263  74.7252264
  88.0183346  14.7183718  74.1122426  87.7523799  14.9133793  75.5897797
  77.9912672  13.2455133  82.4687598  78.5766109  12.4998820  82.6015502
  77.7937510  13.5559089  83.3524262  80.8451327  16.2806380  77.4850040
  80.1761702  16.7652508  77.0014080  80.7064197  16.5275600  78.3993419
  72.5830327   5.8160733  81.1892041  72.6214426   5.2824323  81.9829159
  72.0770619   5.2895938  80.5703018  84.9856596  18.3150123  84.0832698
  85.5374904  18.4781745  84.8481784  85.3262789  18.9054561  83.4112723
  88.1224983  16.2632099  81.0696381  87.9976122  15.4621839  80.5607326
  88.7804074  16.7578292  80.5810351  90.1859891  14.0641119  82.6975931
  89.2390227  13.9446470  82.6254257  90.5342665  13.1763617  82.7802192
  87.1906325  13.8593835  78.8980283  87.0431287  12.9310543  79.0787853
  88.0159818  13.8813926  78.4137358  90.7940447  14.6822394  79.9845156
  91.7186994  14.4765255  79.8469607  90.6255750  14.4338795  80.8934497
  90.5835763  15.2008061  75.3407247  90.7572640  14.6354484  74.5881100
  91.0764654  16.0008956  75.1586737  76.4012723   7.2122731  83.4070806
  75.8566191   7.9882538  83.5391080  77.2792072   7.5593535  83.2489927
  91.5710935  14.5174826  72.4404145  92.2661840  15.1381519  72.6591460
  91.9134085  13.6670177  72.7156523  77.1878744   6.3392627  86.3000963
  76.4460480   6.4875262  86.8865593  76.8671489   6.6000892  85.4367712
  85.1322407  15.8808605  86.0981353  85.4409534  15.6357752  86.9704052
  85.9297889  16.0855243  85.6100223  85.1543019  18.0346515  78.3286729
  84.7148009  17.5422893  79.0219586  85.9051136  17.4919482  78.0878805
  77.6335358  14.2258056  78.3311357  78.4593378  13.9261827  77.9510001
  77.2829410  13.4565678  78.7801146  82.6016891  13.5784524  80.4009031
  81.9796901  12.9155229  80.1011259  83.2721758  13.6045656  79.7182679
  75.8343963  12.1444382  79.2900291  74.9975871  11.7166556  79.1084292
  75.8067609  12.3376825  80.2271082  82.1630398  12.1288447  73.8767492
  82.3118519  12.8123911  73.2234164  82.9696842  12.1093537  74.3916947
  79.9183031   8.1553625  74.8828560  79.6729073   7.2515955  75.0808771
  80.0878946   8.1570775  73.9408038  85.6625804  14.6236578  71.3479239
  85.0899771  15.2426765  70.8949711  86.2358597  15.1735939  71.8819161
  88.8823063  14.9073728  72.4787821  89.8153737  14.8419289  72.6820697
  88.7946276  15.7429995  72.0202354  91.5111080  14.2239598  69.4391769
  91.4324712  13.8899462  70.3327527  92.3320747  14.7161366  69.4383241
  78.9273367   7.9216171  82.7918730  79.1459377   8.8533279  82.8106763
  79.3399141   7.5624145  83.5773533  75.0181720   8.8256642  81.0442345
  74.3245191   8.4110594  80.5312299  75.7654711   8.8677178  80.4475764
  76.9318462   8.7574895  78.9208360  76.9089150   8.8562583  77.9690243
  77.2419099   9.6040046  79.2425526  79.5905840  10.8151050  83.0354974
  80.5449094  10.7834993  82.9684906  79.3918364  10.3541674  83.8505200
  80.1805222   9.3852166  85.6025772  80.9998111   9.8796245  85.6260609
  80.4542030   8.4684135  85.5743339  77.9456069  16.3570670  80.0525172
  77.8110537  15.5971071  79.4863170  77.5288131  17.0811570  79.5853961
  89.0815032  11.5407593  69.0601747  89.7850882  11.7457596  69.6759403
  88.3577681  12.1084355  69.3250831  81.1025195  17.2539987  80.2643614
  80.9857579  18.1985419  80.1622305  80.2817641  16.9513548  80.6529414
  90.9901729  11.9790123  71.1100207  91.8247333  11.5471321  70.9277682
  90.8286072  11.8072136  72.0377102  82.1279709  17.9068249  83.4799543
  83.0306956  17.9391859  83.7966038  81.9017079  16.9768700  83.4945879
  83.8833311  16.6599235  80.1409622  82.9328942  16.6601097  80.0273994
  84.1865797  15.9131970  79.6245656  99.6186004  22.4959774  81.2055384
 100.2564414  22.3766521  80.5018724  99.5006847  23.4440618  81.2643336
  96.4275711  22.4487202  81.1416909  96.0894222  22.3328267  80.2537443
  97.2965479  22.0478367  81.1217915  92.2862526  24.3022678  77.1313800
  91.7227392  24.2112615  76.3630087  92.1714921  23.4822583  77.6116292
  89.8326958  25.7973870  79.9698020  90.6248250  25.4564694  79.5544319
  90.0723609  25.9068845  80.8900173  97.8662085  27.9693646  72.4428264
  97.2150065  28.5547726  72.0562278  98.6606448  28.4999841  72.5023302
  91.7917712  25.0582783  72.8415399  92.5648588  24.5111770  72.7028275
  92.1443111  25.9227032  73.0529860  93.6302755  26.3859165  86.0482298
  93.3392621  27.2904796  85.9328964  94.2659739  26.4275693  86.7626368
  94.5558962  23.7636014  82.6383658  95.1522534  23.5392036  81.9240621
  94.6133933  23.0220759  83.2409106  94.1283990  21.2175449  70.4733849
  94.3809511  20.6956970  69.7117312  93.1908549  21.0541595  70.5760532
  99.1727273  20.2211228  78.2808592  99.9590362  19.8030651  77.9299009
  99.4365977  21.1257320  78.4490240  99.3437350  25.6584078  72.9797249
  98.7083183  25.7318704  73.6918153  99.0134757  26.2477677  72.3016328
  93.8480279  23.1203555  72.6758224  93.7316537  22.4448459  73.3439308
  93.9582539  22.6335929  71.8590377  96.1911820  22.5813702  76.3804913
  95.8270027  22.0544323  77.0917834  97.0478936  22.1912171  76.2071398
  95.8317307  17.6103602  71.3766261  95.9991709  18.4783838  71.7436732
  95.6414476  17.7730884  70.4527551  98.5892640  26.0720581  83.0432092
  98.2893363  26.9745620  82.9347899  98.2443699  25.8052764  83.8953245
  92.0405121  22.5234378  79.0768796  91.1155618  22.3910592  79.2846488
  92.2889535  23.3028597  79.5738739  95.8106528  20.0661259  72.3612928
  95.6906153  20.5118310  73.1998409  95.1159116  20.4146577  71.8026466
  89.4013932  22.1667651  79.9112585  89.5306314  22.4202130  80.8251997
  88.7211384  22.7595359  79.5917240  93.5713420  32.8364901  76.0103059
  93.4937449  33.7872726  76.0891540  92.9675063  32.4910774  76.6677986
 101.5091594  20.5382733  73.1893262 102.4209450  20.7710119  73.0140960
 101.0001241  21.1219777  72.6268341  94.3177022  22.8178220  88.2282393
  95.0591706  23.3563264  87.9517217  93.6114007  23.4444509  88.3853945
  96.1463432  19.8979967  84.1988112  96.9924627  20.3219381  84.3422761
  96.0862069  19.2413592  84.8926675 100.1161176  25.5208551  80.5806844
  99.4870039  25.6854265  79.8782912  99.7286838  25.9350161  81.3517808
 103.9950408  26.4562989  77.9351208 103.3101446  26.8361890  77.3848241
 104.0794257  27.0658316  78.6683155  95.6689138  25.2582959  77.8456929
  96.1327484  25.5370662  77.0561551  95.4045936  24.3566404  77.6630020
  92.5613219  24.8054441  80.7836692  93.1314576  25.2341709  80.1454177
  93.1521331  24.5237025  81.4820878  94.6058024  21.3806112  74.6546494
  95.3082067  21.8327155  75.1220420  94.2738653  20.7389930  75.2826387
  88.3483358  19.6389664  79.9563628  87.5582412  19.8947193  79.4803738
  88.8394605  20.4538002  80.0615668 102.3647168  26.9794903  82.7068908
 103.1864611  26.5775091  82.4251590 102.3609570  26.8763138  83.6585024
  90.2998103  20.0034243  76.9147104  89.5029267  20.1152938  77.4330600
  90.0723696  20.3420896  76.0487995  96.1303771  26.5278947  84.8629619
  96.1948204  26.9899354  85.6987791  95.4214695  25.8976312  84.9911929
  86.6321061  19.8920155  82.3878618  86.8829099  20.7767165  82.6536194
  87.1680609  19.7124756  81.6153710  95.8451789  28.1947054  74.7308599
  95.7097463  29.0398590  75.1593447  96.3861601  28.3966332  73.9674533
  89.2981186  25.7122492  75.3036524  89.8105707  26.5065742  75.4542089
  89.9503899  25.0148783  75.2370126  91.1076071  28.8288248  77.3859277
  91.2842699  29.7506213  77.1980261  91.9032904  28.5146668  77.8153657
  90.3928427  20.8752880  87.2621441  90.2781942  19.9738138  87.5628540
  89.5372945  21.1216577  86.9106257  97.4720265  28.8170621  88.8608941
  97.0284119  28.0306999  88.5429846  98.1337479  29.0049771  88.1952832
  92.2307386  30.3466422  83.3869620  92.7814811  30.2183486  82.6146614
  91.3918862  30.6461311  83.0364513  96.0274557  26.6117550  87.7313851
  96.5602894  25.8505838  87.5013159  95.4988638  26.3191202  88.4738005
  87.2630103  24.0411147  76.0796095  88.1005325  24.4508155  75.8629803
  87.4408371  23.1010589  76.0496289  99.1594535  21.7086227  71.7679928
  98.6441158  22.4790832  72.0068315  98.8871843  21.0351363  72.3912989
  96.7441646  16.5535928  76.8265166  95.8883242  16.1642778  76.6470805
  97.1568598  16.6327889  75.9664952  94.5183678  14.1721001  80.2322908
  95.3836675  13.9763810  79.8728797  94.5861187  13.9431353  81.1592264
 104.1328809  24.4618582  73.7033101 103.3558252  24.1229741  73.2588263
 104.8120290  24.4671205  73.0288066  98.9480838  19.5813319  73.5939709
  98.6430974  19.8959468  74.4449852  99.9011280  19.6594739  73.6367042
  97.3927270  25.7403543  75.2432663  96.8648632  25.0056302  74.9305900
  96.8914773  26.5178219  74.9972631 102.3720116  23.9352563  80.3599709
 101.7143790  24.6251824  80.4479838 103.1760515  24.3248995  80.7033696
  92.1245998  16.4023209  77.6039274  92.6989749  16.1798390  76.8712467
  92.7116980  16.4711903  78.3567876 101.1825575  22.2896936  78.4103651
 101.6957457  22.9226928  78.9125361 101.8326799  21.6898131  78.0447011
  92.4515585  18.4327670  71.6235160  91.6152897  18.7702356  71.9444434
  92.3120354  18.2976650  70.6862297  94.4268665  13.2764458  76.3314344
  93.7733078  12.9613475  75.7070959  94.3849139  12.6540198  77.0574167
  95.5379870  23.5583753  68.2467636  94.6306932  23.3273006  68.4458785
  96.0350902  22.7621372  68.4341618  98.4447949  32.2681260  71.1664322
  97.7709648  32.5712957  71.7749280  98.8313771  33.0710340  70.8169779
  97.6606406  19.7646391  80.6561992  96.7428967  19.9861338  80.4983680
  98.0766549  19.8392702  79.7973699  98.4441453  21.1637807  75.7864672
  99.1913272  21.6759204  75.4771794  98.7133043  20.8421860  76.6469065
  96.7168104  23.6596348  72.7691626  95.8079323  23.3755381  72.8664096
  96.7463187  24.0795426  71.9094933 101.9487371  27.2702937  76.5382794
 101.4949698  26.4293847  76.5947984 101.3181338  27.9064336  76.8757574
 100.8920291  18.1994923  77.7683461 100.1543047  17.6872309  78.0993704
 101.1447064  17.7595305  76.9566738 100.3920310  29.1079434  77.4732612
 100.6843285  29.6684491  76.7544977 100.9018931  29.4007995  78.2285771
  87.2856274  21.3801862  76.7506828  87.0880674  20.7871223  76.0257895
  86.7302938  21.0754072  77.4682767  95.2652998  21.2724968  78.8701421
  95.3201607  20.3198805  78.7943898  94.4544200  21.4284407  79.3542720
  96.4144191  25.2005091  70.1079705  95.9763621  24.4840950  69.6485342
  97.1554632  25.4281206  69.5464796  93.2045358  19.8902028  76.6291800
  92.3913223  20.1896199  77.0356992  93.7004352  19.4957717  77.3466283
  95.3553935  29.8859785  78.5626065  95.3130114  30.1120631  77.6334597
  96.2716634  29.6523160  78.7111866 104.5317306  23.4762288  76.1656023
 104.3935205  23.6663884  75.2377212 104.1753525  24.2381671  76.6224074
  92.6959432  17.4620384  82.2453035  93.3358812  17.3209143  81.5475999
  91.8636963  17.1754897  81.8691637  93.4719736  26.7622814  78.3588028
  94.2660335  26.2673134  78.1570603  92.7611429  26.2340677  77.9955733
  98.2914581  29.1440910  82.7100395  98.3451603  29.7131846  83.4778111
  97.4229362  29.3142795  82.3454432  89.7802500  20.9065896  74.4347780
  88.8500088  20.8450351  74.6517743  89.8759972  20.3841848  73.6384422
  89.6988049  17.4320709  77.0226022  89.9594866  18.3466042  76.9135183
  90.5205221  16.9645151  77.1722635  91.1712974  18.8458466  84.1924847
  91.8436027  18.6375828  83.5437496  90.3442761  18.6480552  83.7530079
  97.2502680  23.3101172  84.2687327  98.1794740  23.4612331  84.0956295
  96.8293710  23.3985192  83.4135974  96.0491012  27.3351836  82.0385865
  95.9102098  26.9670620  82.9111803  95.2605608  27.8499475  81.8669823
  96.6439164  32.4360932  73.3811401  96.8190920  31.9648976  74.1957024
  95.9571952  33.0626699  73.6092662  97.5996227  26.7133439  79.4274703
  97.2646060  26.6734209  80.3232352  97.1000173  26.0478155  78.9545113
  91.5740471  22.1201069  84.9527284  91.4360269  21.3881308  85.5538823
  92.4845395  22.0309969  84.6711472 100.5355419  24.0589473  69.7011762
  99.9184590  23.3336301  69.6044815 100.0671907  24.8198833  69.3578837
  94.2022772  21.8321028  84.4410963  94.9122391  21.1914220  84.3997582
  94.1592080  22.0833923  85.3637144  92.9151706  18.8186246  86.2606603
  92.3789063  18.3676984  86.9128199  92.3268414  18.9532155  85.5177067
  91.2100249  35.5850295  80.1551262  91.4496848  36.2168819  80.8330280
  90.3669446  35.2338335  80.4416621  92.3253965  18.2774897  68.8233067
  91.4483431  18.1563698  68.4595313  92.8011718  17.4860976  68.5711955
  83.8456105  23.0652057  78.9174574  84.5327145  22.7513787  78.3295589
  83.6904234  23.9693422  78.6441825  88.6490827  17.9542254  83.3459597
  88.5649016  17.3467923  82.6110007  87.8273534  18.4451272  83.3469094
  95.7228111  31.3929418  82.5592766  95.6498283  32.1984389  83.0712070
  95.2805504  31.5921383  81.7340787  95.5117891  30.6301188  76.0695587
  94.7285413  31.1722868  76.1633812  96.2110636  31.1475167  76.4689828
  98.8214541  16.4395817  78.7129792  99.3183241  15.6865779  78.3930863
  98.0501523  16.4760134  78.1473002  98.1826795  31.2916252  84.7150924
  98.8954767  31.9263717  84.6426826  97.6916823  31.3880118  83.8990926
  99.9044322  25.1967504  76.2868216  98.9700600  25.3168967  76.1172920
 100.0820990  24.2939971  76.0228226  95.4049510  18.5813200  78.4401477
  95.0347297  18.0284241  79.1282383  95.9008602  17.9771334  77.8876477
 103.2916873  21.0384824  76.8218250 103.7577325  21.8712815  76.7478553
 103.7424374  20.5729805  77.5263508  93.2338708  29.0410695  85.5356495
  93.9348168  29.6747178  85.6885889  92.7633823  29.3825427  84.7752134
 101.3593104  27.3828645  73.8204402 101.6352948  27.2685240  74.7298276
 100.4897603  26.9846130  73.7816575  97.9947168  31.6314996  77.4637216
  98.1769563  30.8136652  77.9264968  98.8180154  31.8482688  77.0262106
  98.3289334  30.5583181  74.7252264  98.8577100  30.0475636  74.1122426
  98.5917553  30.2425711  75.5897797  88.8306426  28.5747050  82.4687598
  89.4159863  27.8290738  82.6015502  88.6331265  28.8851007  83.3524262
  91.6845082  31.6098298  77.4850040  91.0155457  32.0944425  77.0014080
  91.5457951  31.8567518  78.3993419  83.4224081  21.1452650  81.1892041
  83.4608181  20.6116241  81.9829159  82.9164374  20.6187856  80.5703018
  95.8250350  33.6442041  84.0832698  96.3768658  33.8073663  84.8481784
  96.1656544  34.2346479  83.4112723  90.8014843  15.9917191  84.6854583
  90.8656170  16.8532022  84.2731981  90.7381964  15.3791193  83.9526942
  87.0532659  19.8716753  74.2645972  87.3486100  18.9627431  74.2113026
  86.1520695  19.8504492  73.9426975  98.9618738  31.5924017  81.0696381
  98.8369877  30.7913756  80.5607326  99.6197829  32.0870210  80.5810351
  90.5826906  17.9472749  80.2473521  89.8613492  18.5608717  80.1080994
  91.3720162  18.4830514  80.1690167 101.0253646  29.3933037  82.6975931
 100.0783981  29.2738388  82.6254257 101.3736419  28.5055535  82.7802192
  88.7820500  17.5530850  74.3885297  88.4533206  16.6728229  74.2060403
  89.1359871  17.4978519  75.2761687  98.0300079  29.1885753  78.8980283
  97.8825042  28.2602460  79.0787853  98.8553573  29.2105844  78.4137358
  91.8962323  17.8403820  74.7560775  92.2358396  18.3689741  74.0339383
  92.3434444  18.1784226  75.5319342 101.6334201  30.0114312  79.9845156
 102.5580749  29.8057173  79.8469607 101.4649504  29.7630713  80.8934497
  93.8830471  16.3378442  72.9554068  94.6038833  16.7159694  72.4517785
  93.2595775  17.0567318  73.0589046  98.0261594  17.0423591  73.8912400
  98.2425208  17.9248228  73.5901228  97.5455661  16.6509804  73.1618042
  92.7660815  20.0009304  80.4683145  92.6205396  20.3149607  81.3607426
  92.2886019  20.6194204  79.9154043  94.6257198  16.9911852  80.5164034
  94.6118767  16.0952945  80.1796332  95.3429626  16.9982516  81.1502320
  96.4783328  17.4249192  82.5617162  96.2201106  18.3466263  82.5601492
  95.9468369  17.0279627  83.2517626 101.4229517  30.5299979  75.3407247
 101.5966395  29.9646402  74.5881100 101.9158408  31.3300874  75.1586737
  87.2406477  22.5414648  83.4070806  86.6959945  23.3174456  83.5391080
  88.1185827  22.8885453  83.2489927  94.0294094  15.8726232  75.7851604
  94.1510005  14.9442878  75.9842492  93.7396136  15.8864918  74.8729920
 102.4104690  29.8466744  72.4404145 103.1055594  30.4673436  72.6591460
 102.7527840  28.9962095  72.7156523  88.0272499  21.6684544  86.3000963
  87.2854235  21.8167180  86.8865593  87.7065243  21.9292810  85.4367712
 104.3096113  27.2966449  73.9691476 104.8347437  27.6353722  73.2440796
 104.2218465  26.3613464  73.7854611  95.9716162  31.2100523  86.0981353
  96.2803288  30.9649669  86.9704052  96.7691644  31.4147161  85.6100223
  95.9936774  33.3638432  78.3286729  95.5541764  32.8714811  79.0219586
  96.7444891  32.8211400  78.0878805  88.4729113  29.5549973  78.3311357
  89.2987133  29.2553745  77.9510001  88.1223165  28.7857596  78.7801146
  93.4410646  28.9076441  80.4009031  92.8190655  28.2447146  80.1011259
  94.1115513  28.9337573  79.7182679  86.6737718  27.4736300  79.2900291
  85.8369626  27.0458474  79.1084292  86.6461363  27.6668743  80.2271082
  93.0024153  27.4580365  73.8767492  93.1512273  28.1415829  73.2234164
  93.8090596  27.4385455  74.3916947  90.7576786  23.4845542  74.8828560
  90.5122828  22.5807872  75.0808771  90.9272700  23.4862693  73.9408038
  90.0272433  19.2173900  72.3814722  89.3341678  19.2918255  71.7254758
  89.7824185  18.4534244  72.9036239  96.5019558  29.9528495  71.3479239
  95.9293525  30.5718682  70.8949711  97.0752352  30.5027857  71.8819161
  99.7216818  30.2365645  72.4787821 100.6547491  30.1711207  72.6820697
  99.6340031  31.0721912  72.0202354 102.3504835  29.5531516  69.4391769
 102.2718466  29.2191379  70.3327527 103.1714501  30.0453284  69.4383241
  96.8866357  21.2889308  68.6895291  97.8325461  21.1595516  68.7583709
  96.5080602  20.5503970  69.1664720  95.0709274  19.2139284  68.6250177
  94.1640729  18.9172397  68.7012890  95.3485255  18.9169102  67.7584463
  85.9887214  20.5345648  79.0749223  85.6689999  19.6810956  78.7823597
  85.4420642  20.7494226  79.8307190  89.7667122  23.2508089  82.7918730
  89.9853132  24.1825197  82.8106763  90.1792896  22.8916063  83.5773533
  96.6871340  13.7576174  74.7794418  95.8772068  13.4123259  75.1549664
  97.3755757  13.4483718  75.3682030  93.8408058  16.0726220  68.7662156
  94.7027222  16.3981118  69.0257973  94.0258403  15.2857715  68.2535222
  85.8575474  24.1548559  81.0442345  85.1638946  23.7402512  80.5312299
  86.6048465  24.1969096  80.4475764  87.7712217  24.0866813  78.9208360
  87.7482905  24.1854500  77.9690243  88.0812853  24.9331964  79.2425526
  90.4299595  26.1442968  83.0354974  91.3842848  26.1126910  82.9684906
  90.2312118  25.6833592  83.8505200  91.0198977  24.7144084  85.6025772
  91.8391866  25.2088163  85.6260609  91.2935784  23.7976052  85.5743339
 100.7765573  17.1054836  74.9653727  99.8891428  17.3904487  74.7473922
 101.1919562  16.9448600  74.1181004  88.7849823  31.6862588  80.0525172
  88.6504291  30.9262988  79.4863170  88.3681886  32.4103487  79.5853961
  99.9208786  26.8699511  69.0601747 100.6244637  27.0749514  69.6759403
  99.1971435  27.4376273  69.3250831 100.7506597  22.6209372  75.1804017
 100.6941798  23.0777924  74.3411650 101.3034939  21.8600057  75.0026860
 104.5611403  18.4099104  76.0054137 104.3048337  18.0095740  76.8362344
 103.9364271  19.1242898  75.8804276  91.9418949  32.5831905  80.2643614
  91.8251333  33.5277337  80.1622305  91.1211396  32.2805466  80.6529414
 101.8295484  27.3082040  71.1100207 102.6641088  26.8763239  70.9277682
 101.6679827  27.1364054  72.0377102 101.4841376  23.8114154  72.4756546
 101.4290180  23.6458425  71.5344991 100.8587431  24.5190187  72.6318736
  86.2733891  19.0482218  86.3017969  86.9192755  18.5381172  86.7905194
  86.0651042  19.7850900  86.8761394  94.7937501  13.3122263  72.0541865
  94.7816171  14.2564103  72.2110136  95.6860923  13.1292408  71.7601326
  92.9673463  33.2360166  83.4799543  93.8700710  33.2683777  83.7966038
  92.7410833  32.3060617  83.4945879  94.7227065  31.9891153  80.1409622
  93.7722696  31.9893015  80.0273994  95.0259552  31.2423888  79.6245656
 103.1256281  39.6314596  77.1313800 102.5621146  39.5404533  76.3630087
 103.0108676  38.8114500  77.6116292 100.6720713  41.1265788  79.9698020
 101.4642005  40.7856612  79.5544319 100.9117363  41.2360763  80.8900173
 102.6311467  40.3874701  72.8415399 103.4042343  39.8403688  72.7028275
 102.9836866  41.2518950  73.0529860 104.4696509  41.7151083  86.0482298
 104.1786375  42.6196714  85.9328964 105.1053494  41.7567611  86.7626368
 105.3952716  39.0927932  82.6383658 105.9916288  38.8683954  81.9240621
 105.4527688  38.3512677  83.2409106 104.9677745  36.5467367  70.4733849
 105.2203265  36.0248888  69.7117312 104.0302304  36.3833512  70.5760532
 104.6874033  38.4495473  72.6758224 104.5710291  37.7740376  73.3439308
 104.7976293  37.9627847  71.8590377 102.8798876  37.8526295  79.0768796
 101.9549372  37.7202509  79.2846488 103.1283289  38.6320515  79.5738739
 100.2407687  37.4959569  79.9112585 100.3700068  37.7494048  80.8251997
  99.5605138  38.0887277  79.5917240 104.4107174  48.1656819  76.0103059
 104.3331204  49.1164644  76.0891540 103.8068818  47.8202691  76.6677986
 105.1570776  38.1470138  88.2282393 105.8985461  38.6855182  87.9517217
 104.4507762  38.7736426  88.3853945 103.4006974  40.1346358  80.7836692
 103.9708331  40.5633627  80.1454177 103.9915085  39.8528943  81.4820878
  99.1877112  34.9681582  79.9563628  98.3976166  35.2239110  79.4803738
  99.6788360  35.7829920  80.0615668 101.1391858  35.3326161  76.9147104
 100.3423021  35.4444855  77.4330600 100.9117450  35.6712813  76.0487995
  97.4714815  35.2212072  82.3878618  97.7222854  36.1059082  82.6536194
  98.0074364  35.0416674  81.6153710 100.1374941  41.0414410  75.3036524
 100.6499461  41.8357660  75.4542089 100.7897653  40.3440700  75.2370126
 101.9469825  44.1580166  77.3859277 102.1236454  45.0798131  77.1980261
 102.7426659  43.8438585  77.8153657 101.2322182  36.2044798  87.2621441
 101.1175697  35.3030055  87.5628540 100.3766700  36.4508495  86.9106257
 103.0701141  45.6758340  83.3869620 103.6208566  45.5475403  82.6146614
 102.2312617  45.9753229  83.0364513  98.1023857  39.3703064  76.0796095
  98.9399079  39.7800073  75.8629803  98.2802125  38.4302506  76.0496289
 102.9639752  31.7315127  77.6039274 103.5383504  31.5090308  76.8712467
 103.5510735  31.8003821  78.3567876 103.2909339  33.7619588  71.6235160
 102.4546651  34.0994274  71.9444434 103.1514109  33.6268567  70.6862297
 105.2662420  28.6056375  76.3314344 104.6126832  28.2905393  75.7070959
 105.2242894  27.9832116  77.0574167  98.1250028  36.7093780  76.7506828
  97.9274428  36.1163140  76.0257895  97.5696692  36.4045990  77.4682767
 104.0439112  35.2193946  76.6291800 103.2306978  35.5188116  77.0356992
 104.5398106  34.8249635  77.3466283 103.5353187  32.7912301  82.2453035
 104.1752566  32.6501060  81.5475999 102.7030717  32.5046815  81.8691637
 104.3113491  42.0914732  78.3588028 105.1054089  41.5965052  78.1570603
 103.6005183  41.5632595  77.9955733 100.6196254  36.2357813  74.4347780
  99.6893842  36.1742269  74.6517743 100.7153726  35.7133766  73.6384422
 100.5381803  32.7612626  77.0226022 100.7988621  33.6757959  76.9135183
 101.3598976  32.2937069  77.1722635 102.0106729  34.1750383  84.1924847
 102.6829782  33.9667746  83.5437496 101.1836515  33.9772469  83.7530079
 102.4134226  37.4492986  84.9527284 102.2754024  36.7173225  85.5538823
 103.3239149  37.3601886  84.6711472 105.0416526  37.1612946  84.4410963
 105.7516145  36.5206138  84.3997582 104.9985835  37.4125841  85.3637144
 103.7545460  34.1478164  86.2606603 103.2182817  33.6968902  86.9128199
 103.1662169  34.2824072  85.5177067 102.0494004  50.9142213  80.1551262
 102.2890602  51.5460737  80.8330280 101.2063200  50.5630253  80.4416621
 103.1647719  33.6066815  68.8233067 102.2877186  33.4855616  68.4595313
 103.6405472  32.8152893  68.5711955  94.6849860  38.3943975  78.9174574
  95.3720899  38.0805705  78.3295589  94.5297988  39.2985339  78.6441825
  99.4884582  33.2834171  83.3459597  99.4042770  32.6759841  82.6110007
  98.6667288  33.7743190  83.3469094 104.0732463  44.3702613  85.5356495
 104.7741922  45.0039096  85.6885889 103.6027578  44.7117344  84.7752134
  99.6700181  43.9038968  82.4687598 100.2553618  43.1582656  82.6015502
  99.4725019  44.2142925  83.3524262 102.5238836  46.9390215  77.4850040
 101.8549211  47.4236343  77.0014080 102.3851706  47.1859436  78.3993419
  94.2617836  36.4744568  81.1892041  94.3001935  35.9408159  81.9829159
  93.7558128  35.9479774  80.5703018 101.6408598  31.3209109  84.6854583
 101.7049924  32.1823940  84.2731981 101.5775718  30.7083110  83.9526942
  97.8926413  35.2008670  74.2645972  98.1879854  34.2919349  74.2113026
  96.9914449  35.1796410  73.9426975 101.4220660  33.2764667  80.2473521
 100.7007246  33.8900635  80.1080994 102.2113916  33.8122432  80.1690167
  99.6214255  32.8822768  74.3885297  99.2926961  32.0020147  74.2060403
  99.9753626  32.8270437  75.2761687 102.7356078  33.1695738  74.7560775
 103.0752150  33.6981659  74.0339383 103.1828198  33.5076144  75.5319342
 104.7224225  31.6670359  72.9554068 105.4432588  32.0451612  72.4517785
 104.0989529  32.3859236  73.0589046 103.6054569  35.3301221  80.4683145
 103.4599150  35.6441525  81.3607426 103.1279773  35.9486122  79.9154043
  98.0800232  37.8706566  83.4070806  97.5353700  38.6466374  83.5391080
  98.9579581  38.2177370  83.2489927 104.8687848  31.2018150  75.7851604
 104.9903759  30.2734796  75.9842492 104.5789891  31.2156836  74.8729920
  98.8666253  36.9976462  86.3000963  98.1247989  37.1459098  86.8865593
  98.5458998  37.2584728  85.4367712  99.3122867  44.8841891  78.3311357
 100.1380887  44.5845663  77.9510001  98.9616919  44.1149513  78.7801146
 104.2804400  44.2368359  80.4009031 103.6584410  43.5739064  80.1011259
 104.9509267  44.2629491  79.7182679  97.5131472  42.8028217  79.2900291
  96.6763380  42.3750392  79.1084292  97.4855118  42.9960661  80.2271082
 103.8417907  42.7872282  73.8767492 103.9906028  43.4707747  73.2234164
 104.6484351  42.7677373  74.3916947 101.5970540  38.8137460  74.8828560
 101.3516582  37.9099790  75.0808771 101.7666455  38.8154611  73.9408038
 100.8666188  34.5465818  72.3814722 100.1735433  34.6210173  71.7254758
 100.6217940  33.7826161  72.9036239  96.8280969  35.8637565  79.0749223
  96.5083753  35.0102874  78.7823597  96.2814397  36.0786144  79.8307190
 100.6060876  38.5800006  82.7918730 100.8246886  39.5117114  82.8106763
 101.0186650  38.2207981  83.5773533 104.6801813  31.4018137  68.7662156
 105.5420977  31.7273036  69.0257973 104.8652157  30.6149633  68.2535222
  96.6969229  39.4840477  81.0442345  96.0032700  39.0694430  80.5312299
  97.4442220  39.5261013  80.4475764  98.6105971  39.4158731  78.9208360
  98.5876659  39.5146418  77.9690243  98.9206608  40.2623882  79.2425526
 101.2693349  41.4734886  83.0354974 102.2236603  41.4418828  82.9684906
 101.0705873  41.0125509  83.8505200 101.8592731  40.0436002  85.6025772
 102.6785620  40.5380080  85.6260609 102.1329539  39.1267970  85.5743339
  99.6243578  47.0154505  80.0525172  99.4898046  46.2554906  79.4863170
  99.2075640  47.7395405  79.5853961 102.7812704  47.9123822  80.2643614
 102.6645088  48.8569255  80.1622305 101.9605150  47.6097384  80.6529414
  97.1127645  34.3774136  86.3017969  97.7586509  33.8673090  86.7905194
  96.9044797  35.1142817  86.8761394 103.8067218  48.5652084  83.4799543
 104.7094465  48.5975694  83.7966038 103.5804588  47.6352535  83.4945879
 105.5620820  47.3183071  80.1409622 104.6116451  47.3184932  80.0273994
 105.8653306  46.5715805  79.6245656 105.1011590  51.8036486  81.1892041
 105.1395690  51.2700076  81.9829159 104.5951883  51.2771691  80.5703018
  91.2100251  12.5912418  66.8796568  91.4496849  13.2230942  67.5575587
  90.3669447  12.2400458  67.1661927 103.1256282  16.6376719  63.8559106
 102.5621147  16.5466655  63.0875394 103.0108677  15.8176623  64.3361599
 100.6720714  18.1327910  66.6943327 101.4642006  17.7918735  66.2789626
 100.9117364  18.2422885  67.6145480 102.6311468  17.3936823  59.5660705
 103.4042344  16.8465810  59.4273581 102.9836867  18.2581073  59.7775167
 104.4696511  18.7213206  72.7727605 104.1786377  19.6258836  72.6574271
 105.1053495  18.7629733  73.4871674 102.8798877  14.8588418  65.8014103
 101.9549374  14.7264632  66.0091795 103.1283290  15.6382637  66.2984045
 100.2407688  14.5021692  66.6357892 100.3700069  14.7556170  67.5497304
  99.5605140  15.0949400  66.3162547 104.4107175  25.1718941  62.7348366
 104.3331205  26.1226767  62.8136847 103.8068819  24.8264814  63.3923292
 103.4006975  17.1408481  67.5081999 103.9708332  17.5695749  66.8699483
 103.9915087  16.8591066  68.2066184 100.1374942  18.0476532  62.0281831
 100.6499462  18.8419783  62.1787396 100.7897655  17.3502823  61.9615432
 101.9469826  21.1642289  64.1104584 102.1236455  22.0860253  63.9225568
 102.7426660  20.8500708  64.5398964 103.0701142  22.6820463  70.1114926
 103.6208567  22.5537526  69.3391920 102.2312618  22.9815352  69.7609819
  98.1023859  16.3765187  62.8041401  98.9399081  16.7862195  62.5875109
  98.2802126  15.4364629  62.7741595  98.1250030  13.7155902  63.4752135
  97.9274430  13.1225263  62.7503202  97.5696694  13.4108112  64.1928074
 104.3113492  19.0976854  65.0833334 105.1054090  18.6027174  64.8815909
 103.6005184  18.5694717  64.7201040 102.0494005  27.9204335  66.8796568
 102.2890603  28.5522860  67.5575587 101.2063202  27.5692376  67.1661927
  94.6849861  15.4006097  65.6419880  95.3720901  15.0867827  65.0540896
  94.5297989  16.3047462  65.3687132 104.0732464  21.3764735  72.2601802
 104.7741924  22.0101218  72.4131196 103.6027579  21.7179467  71.4997441
  99.6700182  20.9101090  69.1932904 100.2553619  20.1644778  69.3260808
  99.4725021  21.2205047  70.0769568 102.5238837  23.9452338  64.2095347
 101.8549213  24.4298465  63.7259387 102.3851707  24.1921558  65.1238725
  94.2617837  13.4806691  67.9137347  94.3001936  12.9470281  68.7074466
  93.7558130  12.9541896  67.2948325  98.0800233  14.8768688  70.1316113
  97.5353701  15.6528496  70.2636387  98.9579583  15.2239493  69.9735234
  98.8666255  14.0038585  73.0246269  98.1247991  14.1521220  73.6110900
  98.5458999  14.2646850  72.1613019  99.3122868  21.8904013  65.0556664
 100.1380888  21.5907785  64.6755308  98.9616920  21.1211636  65.5046453
 104.2804402  21.2430482  67.1254338 103.6584411  20.5801187  66.8256565
 104.9509268  21.2691614  66.4427985  97.5131473  19.8090340  66.0145598
  96.6763382  19.3812514  65.8329599  97.4855119  20.0022783  66.9516389
 103.8417908  19.7934405  60.6012798 103.9906029  20.4769869  59.9479471
 104.6484352  19.7739495  61.1162254 101.5970541  15.8199583  61.6073867
 101.3516583  14.9161913  61.8054077 101.7666456  15.8216733  60.6653345
 100.6060878  15.5862129  69.5164036 100.8246887  16.5179237  69.5352070
 101.0186651  15.2270103  70.3018840  96.6969230  16.4902600  67.7687651
  96.0032701  16.0756552  67.2557606  97.4442221  16.5323136  67.1721070
  98.6105973  16.4220853  65.6453666  98.5876661  16.5208541  64.6935549
  98.9206609  17.2686004  65.9670832 101.2693350  18.4797008  69.7600281
 102.2236604  18.4480951  69.6930212 101.0705874  18.0187632  70.5750507
 101.8592733  17.0498124  72.3271078 102.6785622  17.5442203  72.3505916
 102.1329540  16.1330093  72.2988646  99.6243579  24.0216628  66.7770478
  99.4898047  23.2617029  66.2108477  99.2075641  24.7457528  66.3099267
 102.7812705  24.9185945  66.9888921 102.6645089  25.8631377  66.8867611
 101.9605151  24.6159506  67.3774720 103.8067219  25.5714207  70.2044850
 104.7094466  25.6037817  70.5211344 103.5804589  24.6414658  70.2191185
 105.5620821  24.3245193  66.8654928 104.6116452  24.3247055  66.7519300
 105.8653307  23.5777928  66.3490963 105.1011591  28.8098608  67.9137347
 105.1395691  28.2762199  68.7074466 104.5951884  28.2833814  67.2948325
  37.3142304  52.5469395 109.2655846  37.2355935  52.2129258 110.1591604
  38.1351971  53.0391163 109.2647318  43.6693309  66.2923443 112.2692341
  43.0181289  66.8777523 111.8826355  44.4637672  66.8229638 112.3287379
  37.5948936  63.3812580 112.6679476  38.3679812  62.8341567 112.5292352
  37.9474335  64.2456829 112.8793937  39.9315214  59.5405246 110.2997926
  40.1840735  59.0186767 109.5381389  38.9939773  59.3771392 110.4024609
  45.1468574  63.9813875 112.8061326  44.5114407  64.0548501 113.5182230
  44.8165980  64.5707474 112.1280405  39.6511503  61.4433352 112.5022301
  39.5347761  60.7678255 113.1703385  39.7613763  60.9565726 111.6854454
  41.9943044  60.9043499 116.2068990  41.6301251  60.3774120 116.9181911
  42.8510159  60.5141968 116.0335475  41.6348531  55.9333399 111.2030338
  41.8022933  56.8013635 111.5700809  41.4445700  56.0960681 110.2791628
  41.6137751  58.3891056 112.1877005  41.4937377  58.8348107 113.0262486
  40.9190340  58.7376374 111.6290543  47.3122818  58.8612530 113.0157339
  48.2240674  59.0939916 112.8405037  46.8032465  59.4449574 112.4532418
  40.4089248  59.7035908 114.4810571  41.1113291  60.1556952 114.9484497
  40.0769876  59.0619727 115.1090464  35.1012410  64.0352289 115.1300601
  35.6136930  64.8295539 115.2806166  35.7535123  63.3378580 115.0634203
  44.9625759  60.0316024 111.5944005  44.4472382  60.8020629 111.8332392
  44.6903067  59.3581160 112.2177066  49.9360033  62.7848379 113.5297178
  49.1589476  62.4459538 113.0852340  50.6151514  62.7901002 112.8552143
  44.7512062  57.9043116 113.4203786  44.4462197  58.2189265 114.2713929
  45.7042504  57.9824536 113.4631119  43.1958494  64.0633339 115.0696740
  42.6679855  63.3286099 114.7569977  42.6945996  64.8408016 114.8236708
  38.2546808  56.7557467 111.4499237  37.4184121  57.0932153 111.7708511
  38.1151578  56.6206447 110.5126374  41.3411094  61.8813550 108.0731713
  40.4338156  61.6502803 108.2722862  41.8382126  61.0851169 108.2605695
  44.2479173  70.5911057 110.9928399  43.5740872  70.8942754 111.6013357
  44.6344995  71.3940137 110.6433856  44.2472677  59.4867604 115.6128749
  44.9944496  59.9989001 115.3035871  44.5164267  59.1651657 116.4733142
  42.5199327  61.9826145 112.5955703  41.6110547  61.6985177 112.6928173
  42.5494411  62.4025223 111.7359010  42.2175415  63.5234888 109.9343782
  41.7794845  62.8070747 109.4749419  42.9585856  63.7511003 109.3728873
  46.3386643  62.3819270 109.5275839  45.7215813  61.6566098 109.4308892
  45.8703131  63.1428630 109.1842914  38.1285189  56.6004694 108.6497144
  37.2514655  56.4793495 108.2859390  38.6042942  55.8090772 108.3976032
  39.6861694  54.6608238 112.7818145  40.4070057  55.0389491 112.2781862
  39.0626999  55.3797115 112.8853123  43.8292817  55.3653387 113.7176477
  44.0456432  56.2478025 113.4165305  43.3486884  54.9739601 112.9882119
  38.8055376  65.7810162 113.7031569  38.9543497  66.4645626 113.0498241
  39.6121820  65.7615252 114.2181024  36.5608009  61.8075339 114.7092637
  36.3154051  60.9037669 114.9072848  36.7303924  61.8092490 113.7672115
  35.8303657  57.5403697 112.2078799  35.1372902  57.6148052 111.5518835
  35.5855409  56.7764040 112.7300316  42.3050782  68.2758292 111.1743316
  41.7324749  68.8948479 110.7213788  42.8783576  68.8257654 111.7083238
  48.1536058  67.8761313 109.2655846  48.0749690  67.5421176 110.1591604
  48.9745725  68.3683080 109.2647318  42.6897580  59.6119105 108.5159368
  43.6356685  59.4825313 108.5847786  42.3111825  58.8733767 108.9928797
  40.8740498  57.5369081 108.4514254  39.9671953  57.2402194 108.5276967
  41.1516479  57.2398899 107.5848540  39.6439282  54.3956016 108.5926233
  40.5058446  54.7210915 108.8522050  39.8289626  53.6087512 108.0799299
  46.5796797  55.4284633 114.7917804  45.6922652  55.7134284 114.5737999
  46.9950786  55.2678397 113.9445081  45.7240010  65.1929308 108.8865824
  46.4275860  65.3979310 109.5023480  45.0002659  65.7606070 109.1514908
  46.5537820  60.9439169 115.0068094  46.4973022  61.4007721 114.1675727
  47.1066163  60.1829854 114.8290937  50.3642626  56.7328901 115.8318214
  50.1079561  56.3325537 116.6626421  49.7395494  57.4472695 115.7068353
  47.6326708  65.6311837 110.9364284  48.4672312  65.1993036 110.7541759
  47.4711051  65.4593851 111.8641179  47.2872600  62.1343950 112.3020623
  47.2321404  61.9688222 111.3609068  46.6618655  62.8419983 112.4582813
  48.9678943  71.9296612 108.6497144  48.0908409  71.8085413 108.2859390
  49.4436696  71.1382690 108.3976032  50.4833037  69.7247934 108.5926233
  51.3452201  70.0502832 108.8522050  50.6683381  68.9379430 108.0799299
  37.3142305  29.5531517  95.9901152  37.2355937  29.2191381  96.8836910
  38.1351972  30.0453285  95.9892625  43.6693310  43.2985565  98.9937648
  43.0181290  43.8839646  98.6071662  44.4637673  43.8291760  99.0532686
  37.5948937  40.3874703  99.3924782  38.3679813  39.8403690  99.2537658
  37.9474336  41.2518952  99.6039244  39.9315215  36.5467369  97.0243232
  40.1840736  36.0248890  96.2626695  38.9939774  36.3833514  97.1269916
  45.1468575  40.9875997  99.5306632  44.5114408  41.0610624 100.2427537
  44.8165982  41.5769596  98.8525712  39.6511504  38.4495475  99.2267607
  39.5347762  37.7740378  99.8948692  39.7613764  37.9627849  98.4099760
  41.9943045  37.9105622 102.9314297  41.6301252  37.3836243 103.6427218
  42.8510161  37.5204091 102.7580782  41.6348532  32.9395521  97.9275645
  41.8022934  33.8075758  98.2946116  41.4445701  33.1022803  97.0036934
  41.6137753  35.3953179  98.9122312  41.4937378  35.8410230  99.7507792
  40.9190341  35.7438497  98.3535850  39.3744645  48.1656821 102.5612443
  39.2968674  49.1164646 102.6400924  38.7706288  47.8202693 103.2187369
  47.3122819  35.8674652  99.7402646  48.2240675  36.1002039  99.5650344
  46.8032466  36.4511696  99.1777725  49.7981633  41.7854908 104.4860591
  49.1132671  42.1653810 103.9357624  49.8825482  42.3950235 105.2192539
  41.4720363  40.5874879 104.3966313  41.9358709  40.8662582 103.6070935
  41.2077161  39.6858323 104.2139403  40.4089249  36.7098031 101.2055878
  41.1113292  37.1619075 101.6729804  40.0769878  36.0681850 101.8335771
  56.2584386  38.6525571 105.6063264  55.5048094  38.0832969 105.4507268
  56.3931927  38.6188236 106.5533898  41.6483014  43.5238974 101.2817983
  41.5128688  44.3690509 101.7102831  42.1892826  43.7258251 100.5183917
  35.1012411  41.0414412 101.8545908  35.6136932  41.8357662 102.0051473
  35.7535124  40.3440702 101.7879509  36.9107296  44.1580168 103.9368661
  37.0873924  45.0798133 103.7489645  37.7064129  43.8438587 104.3663041
  44.9625760  37.0378147  98.3189311  44.4472383  37.8082751  98.5577699
  44.6903068  36.3643283  98.9422373  49.9360034  39.7910501 100.2542485
  49.1589477  39.4521661  99.8097647  50.6151515  39.7963124  99.5797450
  44.7512063  34.9105239 100.1449093  44.4462199  35.2251388 100.9959236
  45.7042505  34.9886659 100.1876426  43.1958495  41.0695462 101.7942047
  42.6679857  40.3348222 101.4815284  42.6945998  41.8470138 101.5482015
  48.1751341  39.2644483 106.9109093  47.5175015  39.9543744 106.9989222
  48.9791740  39.6540914 107.2543079  46.9856800  37.6188855 104.9613035
  47.4988682  38.2518847 105.4634744  47.6358024  37.0190051 104.5956395
  38.2546810  33.7619589  98.1744543  37.4184122  34.0994276  98.4953818
  38.1151579  33.6268569  97.2371680  41.3411095  38.8875672  94.7977020
  40.4338157  38.6564926  94.9968169  41.8382127  38.0913292  94.9851001
  44.2479174  47.5973179  97.7173706  43.5740873  47.9004876  98.3258664
  44.6344996  48.4002260  97.3679163  44.2472678  36.4929726 102.3374055
  44.9944497  37.0051124 102.0281177  44.5164268  36.1713779 103.1978449
  42.5199329  38.9888267  99.3201010  41.6110548  38.7047300  99.4173479
  42.5494412  39.4087346  98.4604317  47.7518596  42.5994857 103.0892177
  47.2980923  41.7585767 103.1457368  47.1212563  43.2356255 103.4266957
  46.1951535  44.4371353 104.0241995  46.4874510  44.9976410 103.3054361
  46.7050156  44.7299914 104.7795155  42.2175416  40.5297011  96.6589088
  41.7794846  39.8132870  96.1994726  42.9585857  40.7573126  96.0974180
  41.1585160  45.2151704 105.1135449  41.1161339  45.4412551 104.1843981
  42.0747859  44.9815079 105.2621250  50.3348531  38.8054208 102.7165407
  50.1966430  38.9955804 101.7886596  49.9784750  39.5673591 103.1733458
  50.3617911  40.8730735 107.7276678  50.7954417  40.7806024 108.5759732
  51.0749492  40.8488235 107.0896694  39.2750961  42.0914733 104.9097411
  40.0691560  41.5965054 104.7079986  38.5642654  41.5632597 104.5465117
  42.4470389  47.7652852  99.9320785  42.6222145  47.2940895 100.7466408
  41.7603177  48.3918618 100.1602046  43.4027452  42.0425358 105.9784086
  43.0677285  42.0026128 106.8741736  42.9031398  41.3770074 105.5054496
  46.3386644  39.3881392  96.2521146  45.7215815  38.6628221  96.1554199
  45.8703132  40.1490753  95.9088220  37.0131474  50.9142215 106.7060645
  37.2528073  51.5460739 107.3839664  36.1700671  50.5630255 106.9926004
  38.1285190  33.6066817  95.3742450  37.2514656  33.4855618  95.0104697
  38.6042943  32.8152895  95.1221339  41.5259336  46.7221337 109.1102149
  41.4529508  47.5276309 109.6221454  41.0836729  46.9213303 108.2850171
  41.3149116  45.9593107 102.6204971  40.5316638  46.5014787 102.7143195
  42.0141861  46.4767087 103.0199212  52.4775523  37.4728102 106.9057468
  52.4665400  38.3552818 106.5351401  51.6092903  37.1199653 106.7112005
  45.7075547  40.5259424 102.8377599  44.7731826  40.6460886 102.6682304
  45.8852215  39.6231891 102.5737609  49.0948098  36.3676743 103.3727634
  49.5608550  37.2004735 103.2987936  49.5455599  35.9021725 104.0772892
  47.1624329  42.7120564 100.3713786  47.4384173  42.5977159 101.2807660
  46.2928828  42.3138049 100.3325959  43.7978393  46.9606915 104.0146599
  43.9800788  46.1428571 104.4774352  44.6211379  47.1774607 103.5771489
  44.1320559  45.8875100 101.2761648  44.6608325  45.3767555 100.6631810
  44.3948778  45.5717631 102.1407181  37.4876307  46.9390217 104.0359424
  36.8186682  47.4236345 103.5523464  37.3489176  47.1859437 104.9502802
  44.7649963  46.9215936 107.6205764  44.6401102  46.1205676 107.1116710
  45.4229054  47.4162129 107.1319734  46.8284871  44.7224956 109.2485314
  45.8815206  44.6030307 109.1763641  47.1767644  43.8347454 109.3311576
  43.8331304  44.5177672 105.4489667  43.6856267  43.5894380 105.6297237
  44.6584798  44.5397763 104.9646742  47.4365426  45.3406231 106.5354539
  48.3611974  45.1349092 106.3978990  47.2680729  45.0922632 107.4443881
  39.6861696  31.6670361  99.5063451  40.4070058  32.0451614  99.0027168
  39.0627000  32.3859238  99.6098429  43.8292819  32.3715510 100.4421784
  44.0456433  33.2540148 100.1410612  43.3486886  31.9801723  99.7127426
  47.2260742  45.8591899 101.8916631  47.3997620  45.2938321 101.1390483
  47.7189634  46.6592793 101.7096121  53.0800133  38.6228322 103.5106930
  53.5231279  37.8735647 103.1126054  52.2026644  38.6138458 103.1280662
  48.2135915  45.1758663  98.9913529  48.9086819  45.7965356  99.2100844
  48.5559065  44.3254014  99.2665907  50.1127338  42.6258369 100.5200860
  50.6378662  42.9645641  99.7950180  50.0249690  41.6905384 100.3363994
  41.7967999  48.6930352 104.8796113  41.3572989  48.2006730 105.5728970
  42.5476116  48.1503319 104.6388188  38.8055378  42.7872284 100.4276875
  38.9543498  43.4707749  99.7743548  39.6121821  42.7677374 100.9426331
  52.6232998  40.0933560 105.9029378  53.4579890  40.5323364 106.0666938
  52.7592127  39.6172213 105.0837624  36.5608011  38.8137462 101.4337944
  36.3154053  37.9099792 101.6318154  36.7303925  38.8154612 100.4917422
  35.8303658  34.5465819  98.9324106  35.1372903  34.6210174  98.2764142
  35.5855410  33.7826163  99.4545622  42.3050783  45.2820415  97.8988623
  41.7324750  45.9010602  97.4459094  42.8783577  45.8319776  98.4328545
  45.5248043  45.5657565  99.0297205  46.4578716  45.5003126  99.2330080
  45.4371256  46.4013832  98.5711738  48.1536060  44.8823435  95.9901152
  48.0749691  44.5483299  96.8836910  48.9745726  45.3745203  95.9892625
  42.6897582  36.6181227  95.2404675  43.6356686  36.4887436  95.3093093
  42.3111827  35.8795889  95.7174103  56.6690801  38.8101181 108.3383508
  57.3994189  38.5486469 108.8991211  56.0597746  38.0729903 108.3785576
  40.8740499  34.5431204  95.1759560  39.9671954  34.2464317  95.2522274
  41.1516480  34.2461022  94.3093847  39.6439284  31.4018139  95.3171540
  40.5058448  31.7273037  95.5767357  39.8289628  30.6149635  94.8044605
  46.5796798  32.4346756 101.5163111  45.6922653  32.7196406 101.2983306
  46.9950787  32.2740519 100.6690388  34.5881048  47.0154507 106.6034555
  34.4535516  46.2554908 106.0372554  34.1713111  47.7395407 106.1363344
  45.7240011  42.1991431  95.6111131  46.4275862  42.4041433  96.2268786
  45.0002660  42.7668192  95.8760214  46.5537822  37.9501292 101.7313401
  46.4973023  38.4069843 100.8921033  47.1066164  37.1891976 101.5536244
  50.3642628  33.7391024 102.5563520  50.1079562  33.3387659 103.3871728
  49.7395496  34.4534818 102.4313660  54.6754966  36.4787097 105.0634812
  54.1154523  36.5480286 105.8366374  54.0698469  36.3028082 104.3434308
  37.7450174  47.9123824 106.8152998  37.6282558  48.8569257 106.7131688
  36.9242621  47.6097386 107.2038797  47.6326709  42.6373960  97.6609591
  48.4672313  42.2055158  97.4787066  47.4711052  42.4655973  98.5886485
  47.2872601  39.1406073  99.0265930  47.2321405  38.9750344  98.0854374
  46.6618656  39.8482106  99.1828120  40.5258290  47.3183072 106.6919005
  39.5753921  47.3184934 106.5783377  40.8290777  46.5715807 106.1755040
  56.2610984  53.1543611 107.7564768  56.8989394  53.0350358 107.0528108
  56.1431827  54.1024455 107.8152720  53.0700690  53.1071039 107.6926292
  52.7319202  52.9912104 106.8046827  53.9390458  52.7062204 107.6727298
  48.9287506  54.9606515 103.6823183  48.3652371  54.8696452 102.9139471
  48.8139901  54.1406420 104.1625676  53.5520473  54.2605891 113.6512498
  53.5409114  53.8658689 112.7793001  53.7141113  53.5271963 114.2446269
  46.4751938  56.4557707 106.5207404  47.2673230  56.1148532 106.1053703
  46.7148588  56.5652682 107.4409557  54.5087065  58.6277483  98.9937648
  53.8575044  59.2131563  98.6071662  55.3031427  59.1583678  99.0532686
  48.4342692  55.7166620  99.3924782  49.2073568  55.1695607  99.2537658
  48.7868091  56.5810870  99.6039244  50.2727734  57.0443002 112.5991682
  49.9817600  57.9488633 112.4838348  50.9084719  57.0859530 113.3135751
  51.1983941  54.4219851 109.1893041  51.7947513  54.1975873 108.4750004
  51.2558913  53.6804596 109.7918489  50.7708970  51.8759286  97.0243232
  51.0234490  51.3540808  96.2626695  49.8333529  51.7125432  97.1269916
  55.8152252  50.8795065 104.8317976  56.6015342  50.4614488 104.4808393
  56.0790957  51.7841157 104.9999624  55.9862330  56.3167915  99.5306632
  55.3508163  56.3902542 100.2427537  55.6559736  56.9061514  98.8525712
  61.2160680  50.8170298 105.7350954  61.9485852  50.2469515 105.9688784
  60.4600035  50.4291898 106.1757460  50.4905258  53.7787392  99.2267607
  50.3741516  53.1032296  99.8948692  50.6007518  53.2919766  98.4099760
  52.8336799  53.2397539 102.9314297  52.4695007  52.7128160 103.6427218
  53.6903915  52.8496008 102.7580782  58.7386100  44.5291872 110.1945563
  58.4069425  45.3987283 109.9706778  58.1431713  44.2128156 110.8739593
  52.4742286  48.2687439  97.9275645  52.6416689  49.1367676  98.2946116
  52.2839455  48.4314721  97.0036934  55.2317619  56.7304418 109.5941475
  54.9318343  57.6329457 109.4857283  54.8868679  56.4636601 110.4462628
  48.6830101  53.1818215 105.6278180  47.7580597  53.0494429 105.8355872
  48.9314514  53.9612434 106.1248122  58.6314763  49.2486958 107.2738913
  57.7231641  49.1802367 106.9797674  58.5802359  49.7258903 108.1020738
  52.4531507  50.7245097  98.9122312  52.3331132  51.1702147  99.7507792
  51.7584096  51.0730414  98.3535850  46.0438912  52.8251488 106.4621969
  46.1731293  53.0785967 107.3761381  45.3636363  53.4179196 106.1426624
  50.2138399  63.4948738 102.5612443  50.1362429  64.4456563 102.6400924
  49.6100043  63.1494611 103.2187369  52.7055629  50.6676604 115.2173810
  51.9288963  51.2270524 115.2076675  53.3446192  51.1533387 115.7388680
  60.4976410  47.4503397 109.0516787  59.8550790  47.7435930 108.4056581
  59.9931338  47.3356317 109.8569983  58.1516573  51.1966570  99.7402646
  59.0634429  51.4293957  99.5650344  57.6426220  51.7803614  99.1777725
  50.9602001  53.4762057 114.7791777  51.7016686  54.0147101 114.5026601
  50.2538987  54.1028346 114.9363329  56.4357341  55.6191198 113.3763939
  56.8440697  55.1773608 112.6318571  55.7134602  55.0443825 113.6298131
  52.7888411  50.5563804 110.7497495  53.6349606  50.9803218 110.8932144
  52.7287049  49.8997429 111.4436059  56.7586156  56.1792388 107.1316227
  56.1295018  56.3438102 106.4292295  56.3711818  56.5933998 107.9027191
  60.6375388  57.1146826 104.4860591  59.9526426  57.4945727 103.9357624
  60.7219237  57.7242153 105.2192539  55.9387856  48.2168173 112.4078669
  55.6948788  48.9710233 111.8712945  56.2147787  48.5953520 113.2425916
  57.8926319  54.7606785 111.0855935  58.1043214  55.4038545 110.4090316
  57.8456067  53.9269102 110.6177865  55.4952548  47.3724606 107.9892507
  54.6337027  47.6705859 108.2809244  55.5214983  47.5895005 107.0573539
  52.3114117  55.9166796 104.3966313  52.7752463  56.1954499 103.6070935
  52.0470916  55.0150241 104.2139403  49.2038199  55.4638278 107.3346076
  49.7739556  55.8925546 106.6963560  49.7946310  55.1820863 108.0330261
  51.2483004  52.0389949 101.2055878  51.9507047  52.4910992 101.6729804
  50.9163632  51.3973768 101.8335771  44.9908338  50.2973501 106.5073011
  44.2007391  50.5531030 106.0313122  45.4819585  51.1121839 106.6125052
  59.0072147  57.6378741 109.2578292  59.8289591  57.2358928 108.9760974
  59.0034550  57.5346975 110.2094408  46.9423083  50.6618081 103.4656488
  46.1454246  50.7736775 103.9839984  46.7148675  51.0004733 102.5997378
  52.7728751  57.1862784 111.4139003  52.8373183  57.6483191 112.2497174
  52.0639674  56.5560149 111.5421312  43.2746041  50.5503992 108.9388002
  43.5254079  51.4351002 109.2045578  43.8105589  50.3708593 108.1663094
  67.0978140  53.9817489 105.6063264  66.3441849  53.4124887 105.4507268
  67.2325681  53.9480154 106.5533898  52.4876768  58.8530891 101.2817983
  52.3522443  59.6982427 101.7102831  53.0286581  59.0550169 100.5183917
  45.9406166  56.3706329 101.8545908  46.4530686  57.1649580 102.0051473
  46.5928878  55.6732620 101.7879509  47.7501050  59.4872086 103.9368661
  47.9267679  60.4090050 103.7489645  48.5457884  59.1730505 104.3663041
  48.8732366  61.0050259 109.9379003  49.4239791  60.8767323 109.1655997
  48.0343842  61.3045148 109.5873896  52.6699537  57.2701387 114.2823235
  53.2027874  56.5089675 114.0522543  52.1413618  56.9775039 115.0247389
  55.8369232  42.3761453 109.8116876  55.4933501  43.2663095 109.7355987
  56.2048194  42.1863111 108.9486461  43.9055082  54.6994984 102.6305478
  44.7430304  55.1091992 102.4139186  44.0833350  53.7594426 102.6005672
  55.8019514  52.3670064  98.3189311  55.2866138  53.1374669  98.5577699
  55.5296823  51.6935200  98.9422373  53.3866626  47.2119765 103.3774550
  52.5308222  46.8226615 103.1980189  53.7993577  47.2911726 102.5174335
  54.9165772  44.7466108 107.7766110  54.4130568  44.7096244 106.9633915
  55.2096379  45.6558851 107.8362766  51.1608658  44.8304838 106.7832291
  52.0261655  44.6347647 106.4238181  51.2286167  44.6015190 107.7101648
  60.7753789  55.1202419 100.2542485  59.9983231  54.7813578  99.8097647
  61.4545270  55.1255042  99.5797450  55.5905818  50.2397156 100.1449093
  55.2855953  50.5543306 100.9959236  56.5436260  50.3178576 100.1876426
  54.0352249  56.3987380 101.7942047  53.5073611  55.6640139 101.4815284
  53.5339752  57.1762056 101.5482015  59.0145096  54.5936400 106.9109093
  58.3568770  55.2835662 106.9989222  59.8185495  54.9832832 107.2543079
  48.7670977  47.0607046 104.1548658  49.3414729  46.8382227 103.4221851
  49.3541960  47.1295741 104.9077259  57.8250554  52.9480773 104.9613035
  58.3382436  53.5810765 105.4634744  58.4751778  52.3481968 104.5956395
  49.0940564  49.0911507  98.1744543  48.2577876  49.4286194  98.4953818
  48.9545334  48.9560487  97.2371680  51.0693645  43.9348295 102.8823728
  50.4158057  43.6197312 102.2580342  51.0274119  43.3124035 103.6083550
  52.1804850  54.2167590  94.7977020  51.2731911  53.9856843  94.9968169
  52.6775882  53.4205209  94.9851001  55.0872929  62.9265097  97.7173706
  54.4134627  63.2296794  98.3258664  55.4738751  63.7294178  97.3679163
  54.3031385  50.4230228 107.2071375  53.3853947  50.6445175 107.0493063
  54.7191529  50.4976539 106.3483083  55.0866433  51.8221644 102.3374055
  55.8338252  52.3343041 102.0281177  55.3558022  51.5005697 103.1978449
  53.3593083  54.3180185  99.3201010  52.4504302  54.0339218  99.4173479
  53.3888167  54.7379263  98.4604317  58.5912351  57.9286774 103.0892177
  58.1374678  57.0877684 103.1457368  57.9606317  58.5648173 103.4266957
  57.5345270  48.8578760 104.3192845  56.7968027  48.3456147 104.6503087
  57.7872044  48.4179142 103.5076122  57.0345290  59.7663271 104.0241995
  57.3268264  60.3268328 103.3054361  57.5443910  60.0591832 104.7795155
  57.6356897  41.6355012 104.9134614  57.9415774  40.7752376 104.6260529
  58.3609502  42.2272633 104.7133608  43.9281253  52.0385699 103.3016212
  43.7305653  51.4455060 102.5767279  43.3727917  51.7337909 104.0192151
  51.9077977  51.9308805 105.4210805  51.9626587  50.9782642 105.3453282
  51.0969179  52.0868245 105.9052104  53.0569171  55.8588929  96.6589088
  52.6188601  55.1424787  96.1994726  53.7979612  56.0865043  96.0974180
  49.8470337  50.5485865 103.1801184  49.0338203  50.8480036 103.5866376
  50.3429331  50.1541554 103.8975666  51.9978915  60.5443622 105.1135449
  51.9555094  60.7704468 104.1843981  52.9141614  60.3106997 105.2621250
  55.4444549  51.0127690 112.0116078  55.7993936  51.2399163 112.8710544
  56.0916680  51.3446066 111.3893333  61.1742286  54.1346126 102.7165407
  61.0360184  54.3247722 101.7886596  60.8178505  54.8965508 103.1733458
  49.3384412  48.1204221 108.7962419  49.9783791  47.9792980 108.0985382
  48.5061942  47.8338734 108.4201021  61.2011665  56.2022653 107.7276678
  61.6348172  56.1097942 108.5759732  61.9143246  56.1780153 107.0896694
  50.1144716  57.4206651 104.9097411  50.9085314  56.9256971 104.7079986
  49.4036408  56.8924514 104.5465117  54.9339560  59.8024747 109.2609779
  54.9876582  60.3715683 110.0287495  54.0654342  59.9726632 108.8963816
  46.4227479  51.5649733 100.9857164  45.4925067  51.5034188 101.2027126
  46.5184951  51.0425686 100.1893805  46.3413028  48.0904546 103.5735406
  46.6019846  49.0049879 103.4644566  47.1630201  47.6228988 103.7232019
  47.8137954  49.5042303 110.7434230  48.4861007  49.2959665 110.0946879
  46.9867740  49.3064389 110.3039463  62.0627215  56.2446353 110.2609564
  62.2563105  57.1492164 110.5068839  61.9627833  55.7853772 111.0948149
  53.7163526  46.1304244 112.7599891  53.0691441  46.8294193 112.6664368
  54.4864541  46.5640388 113.1276139  53.8927660  53.9685009 110.8196711
  54.8219720  54.1196168 110.6465678  53.4718690  54.0569029 109.9645357
  52.6915992  57.9935673 108.5895248  52.5527077  57.6254458 109.4621187
  51.9030588  58.5083313 108.4179206  53.2864144  63.0944770  99.9320785
  53.4615899  62.6232813 100.7466408  52.5996932  63.7210536 100.1602046
  54.2421207  57.3717276 105.9784086  53.9071039  57.3318046 106.8741736
  53.7425153  56.7061992 105.5054496  48.2165451  52.7784906 111.5036667
  48.0785249  52.0465145 112.1048206  49.1270374  52.6893806 111.2220855
  57.1780399  54.7173310  96.2521146  56.5609569  53.9920138  96.1554199
  56.7096887  55.4782670  95.9088220  50.8447751  52.4904865 110.9920347
  51.5547370  51.8498057 110.9506965  50.8017060  52.7417760 111.9146528
  49.5576685  49.4770083 112.8115987  49.0214042  49.0260822 113.4637583
  48.9693394  49.6115992 112.0686451  47.8525229  66.2434132 106.7060645
  48.0921827  66.8752657 107.3839664  47.0094425  65.8922172 106.9926004
  48.9678944  48.9358734  95.3742450  48.0908411  48.8147535  95.0104697
  49.4436697  48.1444813  95.1221339  58.8351937  57.3911802 112.1440906
  57.9478716  57.0537724 112.2667305  59.4050489  56.6594834 112.3809671
  40.4881085  53.7235894 105.4683957  41.1752124  53.4097624 104.8804973
  40.3329213  54.6277259 105.1951209  45.2915807  48.6126091 109.8968981
  45.2073995  48.0051760 109.1619391  44.4698513  49.1035109 109.8978477
  52.3653091  62.0513255 109.1102149  52.2923262  62.8568226 109.6221454
  51.9230484  62.2505221 108.2850171  52.1542870  61.2885025 102.6204971
  51.3710392  61.8306705 102.7143195  52.8535616  61.8059004 103.0199212
  55.4639521  47.0979654 105.2639176  55.9608220  46.3449617 104.9440246
  54.6926502  47.1343971 104.6982385  63.3169278  52.8020020 106.9057468
  63.3059154  53.6844735 106.5351401  62.4486657  52.4491571 106.7112005
  54.8251774  61.9500089 111.2660308  55.5379747  62.5847554 111.1936209
  54.3341803  62.0463955 110.4500310  56.5469301  55.8551342 102.8377599
  55.6125580  55.9752804 102.6682304  56.7245970  54.9523808 102.5737609
  52.0474489  49.2397037 104.9910861  51.6772277  48.6868078 105.6791766
  52.5433582  48.6355171 104.4385861  59.9341853  51.6968661 103.3727634
  60.4002305  52.5296652 103.2987936  60.3849353  51.2313642 104.0772892
  49.8763688  59.6994532 112.0865879  50.5773147  60.3331015 112.2395273
  49.4058803  60.0409264 111.3261518  58.0018084  58.0412482 100.3713786
  58.2777928  57.9269077 101.2807660  57.1322582  57.6429967 100.3325959
  57.9058515  44.0649248 107.4118535  56.9921595  44.2953475 107.5800742
  58.3351617  44.1487692 108.2632567  57.6764974  52.2539140 109.9118429
  57.0236424  52.5015047 109.2570882  58.0545354  51.4403278 109.5780906
  54.6372148  62.2898833 104.0146599  54.8194542  61.4720489 104.4774352
  55.4605134  62.5066525 103.5771489  54.9714313  61.2167018 101.2761648
  55.5002080  60.7059473 100.6631810  55.2342533  60.9009548 102.1407181
  53.7252547  52.9958951 116.3984466  53.0493184  52.8953080 117.0686841
  54.5480181  52.8398165 116.8620463  45.4731406  59.2330887 109.0196981
  46.0584843  58.4874575 109.1524886  45.2756244  59.5434844 109.9033645
  48.3270061  62.2682135 104.0359424  47.6580436  62.7528262 103.5523464
  48.1882931  62.5151355 104.9502802  40.0649061  51.8036488 107.7401424
  40.1033160  51.2700078 108.5338543  39.5589354  51.2771693 107.1212402
  52.4675330  64.3025878 110.6342082  53.0193638  64.4657500 111.3991167
  52.8081523  64.8930316 109.9622107  47.4439823  46.6501028 111.2363967
  47.5081149  47.5115859 110.8241364  47.3806943  46.0375030 110.5036325
  43.6957638  50.5300590 100.8155356  43.9911079  49.6211268 100.7622410
  42.7945674  50.5088329 100.4936358  55.6043717  62.2507854 107.6205764
  55.4794856  61.4497594 107.1116710  56.2622808  62.7454047 107.1319734
  47.2251885  48.6056586 106.7982904  46.5038471  49.2192554 106.6590378
  48.0145141  49.1414351 106.7199550  57.6678625  60.0516874 109.2485314
  56.7208961  59.9322225 109.1763641  58.0161399  59.1639372 109.3311576
  45.4245480  48.2114687 100.9394681  45.0958186  47.3312066 100.7569787
  45.7784851  48.1562356 101.8271070  54.6725059  59.8469590 105.4489667
  54.5250021  58.9186297 105.6297237  55.4978552  59.8689681 104.9646742
  48.5387303  48.4987657 101.3070159  48.8783376  49.0273578 100.5848767
  48.9859423  48.8368063 102.0828725  58.2759181  60.6698149 106.5354539
  59.2005728  60.4641010 106.3978990  58.1074484  60.4214550 107.4443881
  51.2330744  46.8824708 110.7573227  50.8927564  46.0832521 111.1593907
  50.5269750  47.1826419 110.1850060  51.8847216  43.9674020 109.2100550
  52.7073285  43.4934499 109.0879440  52.1285279  44.7464504 109.7099236
  50.5255450  46.9962279  99.5063451  51.2463813  47.3743532  99.0027168
  49.9020754  47.7151156  99.6098429  54.6686573  47.7007428 100.4421784
  54.8850187  48.5832066 100.1410612  54.1880640  47.3093641  99.7127426
  49.4085794  50.6593141 107.0192528  49.2630375  50.9733444 107.9116810
  48.9310998  51.2778041 106.4663427  51.2682177  47.6495689 107.0673418
  51.2543746  46.7536782 106.7305716  51.9854605  47.6566353 107.7011704
  53.1208308  48.0833029 109.1126545  52.8626086  49.0050100 109.1110876
  52.5893348  47.6863464 109.8027009  58.0654497  61.1883816 101.8916631
  58.2391374  60.6230239 101.1390483  58.5583388  61.9884711 101.7096121
  43.8831457  53.1998485 109.9580190  43.3384925  53.9758293 110.0900464
  44.7610806  53.5469290 109.7999311  50.6719073  46.5310069 102.3360988
  50.7934984  45.6026715 102.5351876  50.3821116  46.5448755 101.4239303
  53.5410264  44.2164980 105.4727708  53.5631960  44.2804313 104.5179687
  53.9578323  43.3769488 105.6668214  63.9193888  53.9520239 103.5106930
  64.3625034  53.2027564 103.1126054  63.0420398  53.9430376 103.1280662
  59.0529669  60.5050581  98.9913529  59.7480574  61.1257273  99.2100844
  59.3952819  59.6545932  99.2665907  44.6697478  52.3268382 112.8510346
  43.9279214  52.4751017 113.4374977  44.3490223  52.5876647 111.9877096
  60.9521092  57.9550286 100.5200860  61.4772416  58.2937559  99.7950180
  60.8643445  57.0197302 100.3363994  52.6361753  64.0222269 104.8796113
  52.1966743  63.5298648 105.5728970  53.3869870  63.4795237 104.6388188
  45.1154092  60.2133810 104.8820741  45.9412112  59.9137582 104.5019385
  44.7648144  59.4441433 105.3310530  50.0835625  59.5660279 106.9518415
  49.4615635  58.9030984 106.6520642  50.7540492  59.5921410 106.2692062
  43.3162697  58.1320137 105.8409675  42.4794605  57.7042311 105.6593676
  43.2886343  58.3252580 106.7780466  49.6449132  58.1164202 100.4276875
  49.7937253  58.7999666  99.7743548  50.4515576  58.0969292 100.9426331
  58.0516636  51.4206584 114.4544093  58.9526499  51.2813049 114.1628091
  58.1264610  51.5861039 115.3942270  52.3859441  48.7973439 113.2997279
  51.5162751  49.0907005 113.0279868  52.6218922  49.3813884 114.0204543
  63.4626753  55.4225478 105.9029378  64.2973644  55.8615282 106.0666938
  63.5985881  54.9464131 105.0837624  60.5118259  52.9805212 111.8506866
  60.9872380  53.1732859 111.0425717  59.5883824  53.0364398 111.6050249
  47.4001765  54.1429380 101.4337944  47.1547807  53.2391710 101.6318154
  47.5697680  54.1446530 100.4917422  55.0898475  45.0153056 110.8162700
  55.6080419  45.7514083 110.4909188  54.7353608  45.3217049 111.6509459
  46.6697413  49.8757737  98.9324106  45.9766658  49.9502092  98.2764142
  46.4249165  49.1118081  99.4545622  55.3411069  41.4353338 106.3363596
  55.6212823  40.7676528 106.9624023  56.1261676  41.6282434 105.8238260
  53.1444538  60.6112332  97.8988623  52.5718505  61.2302519  97.4459094
  53.7177331  61.1611694  98.4328545  59.2119928  49.8570972 110.0835171
  60.1637350  49.9569070 110.1047395  59.0423378  49.0649241 110.5933256
  57.2334307  46.9426556 110.2694572  56.6384239  47.2231568 109.5741061
  56.9484004  47.4320457 111.0411313  56.3641798  60.8949482  99.0297205
  57.2972471  60.8295044  99.2330080  56.2765010  61.7305749  98.5711738
  58.9929814  60.2115353  95.9901152  58.9143446  59.8775216  96.8836910
  59.8139481  60.7037121  95.9892625  61.6908005  53.0777092 109.1977471
  61.6584325  52.1393093 109.3837155  62.3008629  53.1561129 108.4643296
  53.5291336  51.9473145  95.2404675  54.4750441  51.8179353  95.3093093
  53.1505581  51.2087807  95.7174103  61.8402494  49.8688136 109.2435754
  61.3241542  49.0846592 109.0565683  62.7242442  49.5406852 109.4082274
  59.5013221  43.6129151 105.2031567  59.3038042  43.3044239 106.0874899
  60.1112926  44.3390790 105.3329497  67.5084555  54.1393099 108.3383508
  68.2387944  53.8778387 108.8991211  66.8991501  53.4021821 108.3785576
  65.5899852  52.2800962 108.9357959  64.8633016  52.1456926 108.3274451
  65.1747139  52.5877790 109.7414677  51.7134253  49.8723121  95.1759560
  50.8065709  49.5756234  95.2522274  51.9910234  49.5752940  94.3093847
  42.6312194  51.1929485 105.6258607  42.3114978  50.3394793 105.3332981
  42.0845622  51.4078063 106.3816574  46.4092101  53.9091926 109.3428113
  46.6278111  54.8409034 109.3616147  46.8217875  53.5499900 110.1282917
  53.3296319  44.4160011 101.3303802  52.5197047  44.0707096 101.7059048
  54.0180736  44.1067555 101.9191413  55.2586867  43.4938058 102.9528098
  55.8117906  43.9133511 103.6118121  55.4956954  42.5673806 102.9951054
  50.4833038  46.7310057  95.3171540  51.3452202  47.0564955  95.5767357
  50.6683382  45.9441553  94.8044605  42.5000454  54.8132396 107.5951728
  41.8063925  54.3986349 107.0821683  43.2473445  54.8552933 106.9985147
  58.6365674  45.6038583 102.4606763  58.0564344  46.2623387 102.0784815
  58.3701607  44.7815928 102.0494180  57.0869241  45.0043641 104.6628083
  57.5869019  45.1160175 103.8542402  57.7304849  44.7004694 105.3028891
  44.4137196  54.7450650 105.4717743  44.3907884  54.8438337 104.5199626
  44.7237833  55.5915801 105.7934909  47.0724574  56.8026805 109.5864358
  48.0267828  56.7710748 109.5194289  46.8737098  56.3417429 110.4014584
  47.6623956  55.3727921 112.1535155  48.4816845  55.8672000 112.1769993
  47.9360764  54.4559889 112.1252723  57.4190552  47.7638674 101.5163111
  56.5316408  48.0488324 101.2983306  57.8344542  47.6032437 100.6690388
  60.7705089  47.7885195 105.2317450  61.5465479  48.2781647 105.5042067
  60.0453223  48.2143249 105.6889320  63.2077647  48.5012814 106.2891391
  63.8022138  48.2608550 105.5784699  63.2804231  47.7819944 106.9164927
  45.4274803  62.3446425 106.6034555  45.2929271  61.5846826 106.0372554
  45.0106865  63.0687325 106.1363344  56.5633766  57.5283348  95.6111131
  57.2669616  57.7333351  96.2268786  55.8396415  58.0960110  95.8760214
  57.3931576  53.2793209 101.7313401  57.3366778  53.7361761 100.8921033
  57.9459919  52.5183894 101.5536244  61.2036382  49.0682941 102.5563520
  60.9473316  48.6679577 103.3871728  60.5789250  49.7826735 102.4313660
  65.5148720  51.8079015 105.0634812  64.9548278  51.8772204 105.8366374
  64.9092223  51.6319999 104.3434308  48.5843929  63.2415742 106.8152998
  48.4676313  64.1861174 106.7131688  47.7636375  62.9389303 107.2038797
  58.4720463  57.9665877  97.6609591  59.3066067  57.5347076  97.4787066
  58.3104806  57.7947891  98.5886485  58.1266356  54.4697991  99.0265930
  58.0715159  54.3042262  98.0854374  57.5012411  55.1774024  99.1828120
  51.4362481  43.9706100  98.6051249  51.4241151  44.9147940  98.7619519
  52.3285903  43.7876245  98.3110710  49.6098443  63.8944004 110.0308927
  50.5125690  63.9267614 110.3475421  49.3835813  62.9644455 110.0455262
  51.3652045  62.6474990 106.6919005  50.4147676  62.6476852 106.5783377
  51.6684531  61.9007725 106.1755040  55.2514600  40.5648876 102.8597185
  54.4846996  40.0107363 103.0053868  55.6625305  40.6370745 103.7211337
  59.7681260  70.2898433 103.6823183  59.2046126  70.1988370 102.9139471
  59.6533655  69.4698338 104.1625676  65.3480819  73.9569401  98.9937648
  64.6968799  74.5423481  98.6071662  66.1425182  74.4875596  99.0532686
  59.2736446  71.0458538  99.3924782  60.0467322  70.4987525  99.2537658
  59.6261845  71.9102787  99.6039244  61.6102724  67.2051204  97.0243232
  61.8628245  66.6832725  96.2626695  60.6727283  67.0417349  97.1269916
  66.8256084  71.6459833  99.5306632  66.1901917  71.7194459 100.2427537
  66.4953491  72.2353432  98.8525712  61.3299013  69.1079310  99.2267607
  61.2135271  68.4324213  99.8948692  61.4401273  68.6211684  98.4099760
  63.6730554  68.5689457 102.9314297  63.3088761  68.0420078 103.6427218
  64.5297670  68.1787926 102.7580782  63.3136041  63.5979357  97.9275645
  63.4810443  64.4659593  98.2946116  63.1233210  63.7606638  97.0036934
  63.2925262  66.0537014  98.9122312  63.1724887  66.4994065  99.7507792
  62.5977850  66.4022332  98.3535850  56.8832666  68.1543406 106.4621969
  57.0125048  68.4077885 107.3761381  56.2030118  68.7471114 106.1426624
  68.9910328  66.5258487  99.7402646  69.9028184  66.7585874  99.5650344
  68.4819975  67.1095532  99.1777725  62.0876758  67.3681866 101.2055878
  62.7900801  67.8202910 101.6729804  61.7557387  66.7265685 101.8335771
  55.8302092  65.6265419 106.5073011  55.0401146  65.8822948 106.0313122
  56.3213339  66.4413757 106.6125052  57.7816837  65.9909998 103.4656488
  56.9848001  66.1028693 103.9839984  57.5542430  66.3296650 102.5997378
  54.1139795  65.8795909 108.9388002  54.3647833  66.7642919 109.2045578
  54.6499343  65.7000511 108.1663094  56.7799920  71.6998247 101.8545908
  57.2924441  72.4941497 102.0051473  57.4322633  71.0024537 101.7879509
  54.7448837  70.0286901 102.6305478  55.5824059  70.4383910 102.4139186
  54.9227105  69.0886343 102.6005672  66.6413269  67.6961982  98.3189311
  66.1259892  68.4666587  98.5577699  66.3690577  67.0227118  98.9422373
  64.2260380  62.5411683 103.3774550  63.3701976  62.1518533 103.1980189
  64.6387332  62.6203644 102.5174335  65.7559527  60.0758026 107.7766110
  65.2524322  60.0388161 106.9633915  66.0490133  60.9850769 107.8362766
  62.0002413  60.1596756 106.7832291  62.8655409  59.9639564 106.4238181
  62.0679921  59.9307108 107.7101648  71.6147543  70.4494337 100.2542485
  70.8376986  70.1105496  99.8097647  72.2939024  70.4546960  99.5797450
  66.4299572  65.5689074 100.1449093  66.1249708  65.8835223 100.9959236
  67.3830014  65.6470494 100.1876426  64.8746004  71.7279297 101.7942047
  64.3467366  70.9932057 101.4815284  64.3733507  72.5053974 101.5482015
  59.6064732  62.3898964 104.1548658  60.1808483  62.1674145 103.4221851
  60.1935714  62.4587658 104.9077259  59.9334319  64.4203425  98.1744543
  59.0971631  64.7578111  98.4953818  59.7939088  64.2852404  97.2371680
  61.9087399  59.2640213 102.8823728  61.2551812  58.9489230 102.2580342
  61.8667873  58.6415953 103.6083550  63.0198604  69.5459508  94.7977020
  62.1125666  69.3148761  94.9968169  63.5169636  68.7497127  94.9851001
  65.9266683  78.2557015  97.7173706  65.2528382  78.5588712  98.3258664
  66.3132505  79.0586095  97.3679163  65.9260187  67.1513562 102.3374055
  66.6732006  67.6634959 102.0281177  66.1951777  66.8297615 103.1978449
  64.1986838  69.6472103  99.3201010  63.2898057  69.3631135  99.4173479
  64.2281921  70.0671181  98.4604317  68.3739025  64.1870678 104.3192845
  67.6361781  63.6748064 104.6503087  68.6265798  63.7471060 103.5076122
  68.4750652  56.9646930 104.9134614  68.7809529  56.1044293 104.6260529
  69.2003257  57.5564550 104.7133608  54.7675008  67.3677617 103.3016212
  54.5699408  66.7746977 102.5767279  54.2121672  67.0629827 104.0192151
  62.7471732  67.2600723 105.4210805  62.8020341  66.3074560 105.3453282
  61.9362934  67.4160162 105.9052104  63.8962925  71.1880846  96.6589088
  63.4582355  70.4716705  96.1994726  64.6373366  71.4156961  96.0974180
  60.6864092  65.8777783 103.1801184  59.8731957  66.1771953 103.5866376
  61.1823086  65.4833472 103.8975666  60.1778166  63.4496138 108.7962419
  60.8177546  63.3084897 108.0985382  59.3455697  63.1630652 108.4201021
  57.2621234  66.8941651 100.9857164  56.3318822  66.8326106 101.2027126
  57.3578706  66.3717603 100.1893805  57.1806783  63.4196463 103.5735406
  57.4413600  64.3341797 103.4644566  58.0023955  62.9520906 103.7232019
  68.0174153  70.0465228  96.2521146  67.4003324  69.3212056  96.1554199
  67.5490641  70.8074588  95.9088220  59.8072699  64.2650652  95.3742450
  58.9302165  64.1439453  95.0104697  60.2830452  63.4736730  95.1221339
  51.3274839  69.0527812 105.4683957  52.0145879  68.7389542 104.8804973
  51.1722968  69.9569177 105.1951209  56.1309561  63.9418008 109.8968981
  56.0467750  63.3343678 109.1619391  55.3092268  64.4327027 109.8978477
  66.3033275  62.4271572 105.2639176  66.8001975  61.6741534 104.9440246
  65.5320257  62.4635889 104.6982385  62.8868244  64.5688955 104.9910861
  62.5166031  64.0159995 105.6791766  63.3827336  63.9647088 104.4385861
  50.9042815  67.1328405 107.7401424  50.9426915  66.5991996 108.5338543
  50.3983108  66.6063611 107.1212402  54.5351393  65.8592507 100.8155356
  54.8304834  64.9503186 100.7622410  53.6339429  65.8380247 100.4936358
  58.0645640  63.9348504 106.7982904  57.3432226  64.5484472 106.6590378
  58.8538896  64.4706269 106.7199550  56.2639234  63.5406605 100.9394681
  55.9351941  62.6603984 100.7569787  56.6178605  63.4854274 101.8271070
  59.3781058  63.8279575 101.3070159  59.7177130  64.3565496 100.5848767
  59.8253178  64.1659981 102.0828725  62.7240970  59.2965938 109.2100550
  63.5467039  58.8226416 109.0879440  62.9679034  60.0756422 109.7099236
  61.3649205  62.3254196  99.5063451  62.0857567  62.7035449  99.0027168
  60.7414509  63.0443073  99.6098429  65.5080328  63.0299345 100.4421784
  65.7243942  63.9123983 100.1410612  65.0274395  62.6385559  99.7127426
  62.1075932  62.9787607 107.0673418  62.0937501  62.0828700 106.7305716
  62.8248360  62.9858270 107.7011704  61.5112828  61.8601987 102.3360988
  61.6328739  60.9318633 102.5351876  61.2214870  61.8740673 101.4239303
  64.3804018  59.5456897 105.4727708  64.4025715  59.6096230 104.5179687
  64.7972077  58.7061406 105.6668214  60.4842887  73.4456120 100.4276875
  60.6331007  74.1291584  99.7743548  61.2909330  73.4261210 100.9426331
  58.2395520  69.4721297 101.4337944  57.9941562  68.5683627 101.6318154
  58.4091434  69.4738448 100.4917422  57.5091167  65.2049655  98.9324106
  56.8160412  65.2794010  98.2764142  57.2642919  64.4409998  99.4545622
  66.1804824  56.7645256 106.3363596  66.4606577  56.0968445 106.9624023
  66.9655431  56.9574352 105.8238260  63.9838292  75.9404250  97.8988623
  63.4112259  76.5594437  97.4459094  64.5571086  76.4903612  98.4328545
  69.8323569  75.5407270  95.9901152  69.7537200  75.2067134  96.8836910
  70.6533235  76.0329038  95.9892625  64.3685091  67.2765063  95.2404675
  65.3144195  67.1471271  95.3093093  63.9899336  66.5379725  95.7174103
  70.3406975  58.9421069 105.2031567  70.1431796  58.6336157 106.0874899
  70.9506681  59.6682708 105.3329497  62.5528008  65.2015039  95.1759560
  61.6459463  64.9048152  95.2522274  62.8303989  64.9044857  94.3093847
  53.4705948  66.5221403 105.6258607  53.1508733  65.6686711 105.3332981
  52.9239376  66.7369981 106.3816574  64.1690074  59.7451929 101.3303802
  63.3590802  59.3999014 101.7059048  64.8574491  59.4359473 101.9191413
  66.0980622  58.8229976 102.9528098  66.6511660  59.2425429 103.6118121
  66.3350708  57.8965724 102.9951054  61.3226792  62.0601974  95.3171540
  62.1845956  62.3856873  95.5767357  61.5077137  61.2733470  94.8044605
  53.3394208  70.1424314 107.5951728  52.6457680  69.7278267 107.0821683
  54.0867199  70.1844851 106.9985147  69.4759429  60.9330501 102.4606763
  68.8958098  61.5915305 102.0784815  69.2095362  60.1107845 102.0494180
  67.9262995  60.3335559 104.6628083  68.4262774  60.4452093 103.8542402
  68.5698603  60.0296611 105.3028891  55.2530951  70.0742568 105.4717743
  55.2301639  70.1730255 104.5199626  55.5631587  70.9207719 105.7934909
  68.2584307  63.0930591 101.5163111  67.3710162  63.3780242 101.2983306
  68.6738296  62.9324355 100.6690388  67.4027520  72.8575266  95.6111131
  68.1063371  73.0625268  96.2268786  66.6790169  73.4252028  95.8760214
  68.2325331  68.6085127 101.7313401  68.1760532  69.0653679 100.8921033
  68.7853673  67.8475812 101.5536244  72.0430137  64.3974859 102.5563520
  71.7867071  63.9971495 103.3871728  71.4183005  65.1118653 102.4313660
  69.3114218  73.2957795  97.6609591  70.1459822  72.8638994  97.4787066
  69.1498561  73.1239809  98.5886485  68.9660110  69.7989908  99.0265930
  68.9108914  69.6334180  98.0854374  68.3406165  70.5065941  99.1828120
  62.2756236  59.2998017  98.6051249  62.2634905  60.2439857  98.7619519
  63.1679657  59.1168163  98.3110710  66.0908355  55.8940794 102.8597185
  65.3240751  55.3399281 103.0053868  66.5019060  55.9662663 103.7211337
  70.6466453  79.5942570  95.3742450  69.7695920  79.4731371  95.0104697
  71.1224206  78.8028648  95.1221339  72.1620547  77.3893892  95.3171540
  73.0239711  77.7148790  95.5767357  72.3470891  76.6025388  94.8044605
  37.3142306   6.5593640  82.7146459  37.2355938   6.2253504  83.6082217
  38.1351973   7.0515408  82.7137931  43.6693311  20.3047688  85.7182955
  43.0181291  20.8901768  85.3316969  44.4637674  20.8353883  85.7777992
  37.5948939  17.3936825  86.1170089  38.3679815  16.8465812  85.9782965
  37.9474337  18.2581074  86.3284550  39.9315216  13.5529491  83.7488539
  40.1840737  13.0311013  82.9872002  38.9939775  13.3895637  83.8515223
  45.1468577  17.9938120  86.2551939  44.5114410  18.0672746  86.9672844
  44.8165983  18.5831719  85.5771018  39.6511505  15.4557597  85.9512914
  39.5347763  14.7802501  86.6193998  39.7613765  14.9689971  85.1345067
  41.9943046  14.9167744  89.6559603  41.6301253  14.3898365  90.3672525
  42.8510162  14.5266213  89.4826089  41.6348533   9.9457644  84.6520952
  41.8022935  10.8137880  85.0191423  41.4445702  10.1084926  83.7282241
  41.6137754  12.4015302  85.6367619  41.4937379  12.8472352  86.4753099
  40.9190342  12.7500619  85.0781157  39.3744646  25.1718943  89.2857750
  39.2968676  26.1226768  89.3646230  38.7706290  24.8264816  89.9432676
  47.3122820  12.8736775  86.4647953  48.2240676  13.1064161  86.2895650
  46.8032467  13.4573819  85.9023031  49.7981634  18.7917031  91.2105898
  49.1132672  19.1715932  90.6602931  49.8825484  19.4012358  91.9437846
  41.4720364  17.5937001  91.1211619  41.9358710  17.8724704  90.3316242
  41.2077162  16.6920446  90.9384710  40.4089250  13.7160154  87.9301184
  41.1113294  14.1681197  88.3975111  40.0769879  13.0743972  88.5581077
  56.2584387  15.6587694  92.3308570  55.5048095  15.0895092  92.1752575
  56.3931928  15.6250358  93.2779205  41.6483015  20.5301096  88.0063289
  41.5128690  21.3752632  88.4348137  42.1892827  20.7320374  87.2429223
  35.1012412  18.0476534  88.5791215  35.6136933  18.8419785  88.7296779
  35.7535125  17.3502825  88.5124816  36.9107297  21.1642291  90.6613968
  37.0873925  22.0860255  90.4734952  37.7064131  20.8500710  91.0908348
  44.9625761  14.0440269  85.0434618  44.4472385  14.8144874  85.2823005
  44.6903070  13.3705405  85.6667680  49.9360035  16.7972624  86.9787792
  49.1589478  16.4583783  86.5342954  50.6151516  16.8025247  86.3042757
  44.7512064  11.9167361  86.8694399  44.4462200  12.2313510  87.7204542
  45.7042507  11.9948781  86.9121732  43.1958496  18.0757585  88.5187353
  42.6679858  17.3410344  88.2060591  42.6945999  18.8532261  88.2727322
  48.1751342  16.2706605  93.6354400  47.5175017  16.9605867  93.7234528
  48.9791741  16.6603037  93.9788386  46.9856801  14.6250978  91.6858341
  47.4988683  15.2580970  92.1880051  47.6358025  14.0252173  91.3201701
  38.2546811  10.7681712  84.8989850  37.4184123  11.1056398  85.2199125
  38.1151581  10.6330692  83.9616987  41.3411096  15.8937795  81.5222326
  40.4338158  15.6627048  81.7213475  41.8382128  15.0975414  81.7096308
  44.2479175  24.6035302  84.4419012  43.5740874  24.9066999  85.0503970
  44.6344997  25.4064382  84.0924469  44.2472680  13.4991849  89.0619362
  44.9944499  14.0113246  88.7526484  44.5164269  13.1775902  89.9223756
  42.5199330  15.9950390  86.0446316  41.6110549  15.7109423  86.1418786
  42.5494414  16.4149468  85.1849623  47.7518597  19.6056979  89.8137484
  47.2980924  18.7647889  89.8702674  47.1212564  20.2418378  90.1512264
  46.1951537  21.4433476  90.7487302  46.4874511  22.0038533  90.0299668
  46.7050157  21.7362037  91.5040461  42.2175418  17.5359133  83.3834395
  41.7794848  16.8194992  82.9240032  42.9585859  17.7635248  82.8219486
  41.1585162  22.2213827  91.8380755  41.1161341  22.4474673  90.9089287
  42.0747861  21.9877202  91.9866556  50.3348532  15.8116330  89.4410714
  50.1966431  16.0017926  88.5131903  49.9784751  16.5735713  89.8978765
  50.3617912  17.8792857  94.4521985  50.7954419  17.7868147  95.3005039
  51.0749493  17.8550358  93.8142001  39.2750962  19.0976856  91.6342718
  40.0691561  18.6027176  91.4325293  38.5642655  18.5694719  91.2710424
  42.4470390  24.7714975  86.6566092  42.6222146  24.3003018  87.4711714
  41.7603178  25.3980741  86.8847352  43.4027454  19.0487481  92.7029393
  43.0677286  19.0088251  93.5987043  42.9031399  18.3832197  92.2299803
  46.3386645  16.3943515  82.9766453  45.7215816  15.6690343  82.8799505
  45.8703134  17.1552875  82.6333527  37.0131476  27.9204337  93.4305952
  37.2528074  28.5522861  94.1084970  36.1700672  27.5692377  93.7171311
  38.1285191  10.6128939  82.0987757  37.2514658  10.4917740  81.7350003
  38.6042944   9.8215018  81.8466645  41.5259338  23.7283460  95.8347456
  41.4529509  24.5338431  96.3466760  41.0836731  23.9275426  95.0095477
  41.3149117  22.9655230  89.3450277  40.5316639  23.5076910  89.4388502
  42.0141862  23.4829209  89.7444518  52.4775525  14.4790225  93.6302774
  52.4665401  15.3614940  93.2596707  51.6092904  14.1261776  93.4357311
  45.7075548  17.5321546  89.5622906  44.7731827  17.6523009  89.3927610
  45.8852216  16.6294013  89.2982916  49.0948099  13.3738866  90.0972940
  49.5608552  14.2066857  90.0233243  49.5455600  12.9083847  90.8018199
  47.1624330  19.7182687  87.0959092  47.4384174  19.6039282  88.0052966
  46.2928829  19.3200172  87.0571265  43.7978395  23.9669038  90.7391906
  43.9800789  23.1490694  91.2019658  44.6211381  24.1836730  90.3016796
  44.1320560  22.8937223  88.0006954  44.6608326  22.3829678  87.3877116
  44.3948780  22.5779753  88.8652487  37.4876308  23.9452340  90.7604730
  36.8186683  24.4298467  90.2768770  37.3489178  24.1921560  91.6748109
  44.7649964  23.9278059  94.3451071  44.6401103  23.1267799  93.8362016
  45.4229055  24.4224252  93.8565041  46.8284872  21.7287079  95.9730621
  45.8815208  21.6092430  95.9008948  47.1767645  20.8409577  96.0556882
  43.8331305  21.5239795  92.1734973  43.6856268  20.5956502  92.3542543
  44.6584799  21.5459886  91.6892048  47.4365427  22.3468354  93.2599846
  48.3611975  22.1411215  93.1224297  47.2680731  22.0984755  94.1689187
  39.6861697   8.6732484  86.2308758  40.4070059   9.0513736  85.7272475
  39.0627001   9.3921360  86.3343736  43.8292820   9.3777633  87.1667090
  44.0456434  10.2602271  86.8655919  43.3486887   8.9863846  86.4372732
  47.2260744  22.8654021  88.6161937  47.3997621  22.3000444  87.8635790
  47.7189635  23.6654916  88.4341427  53.0800135  15.6290444  90.2352237
  53.5231281  14.8797769  89.8371360  52.2026645  15.6200580  89.8525969
  48.2135916  22.1820786  85.7158836  48.9086821  22.8027478  85.9346150
  48.5559066  21.3316137  85.9911214  50.1127339  19.6320491  87.2446166
  50.6378663  19.9707764  86.5195486  50.0249692  18.6967506  87.0609301
  41.7968000  25.6992474  91.6041420  41.3572990  25.2068853  92.2974276
  42.5476117  25.1565442  91.3633495  38.8055379  19.7934407  87.1522182
  38.9543499  20.4769871  86.4988855  39.6121822  19.7739497  87.6671638
  52.6232999  17.0995682  92.6274685  53.4579891  17.5385486  92.7912245
  52.7592128  16.6234336  91.8082930  36.5608012  15.8199584  88.1583251
  36.3154054  14.9161914  88.3563461  36.7303926  15.8216735  87.2162729
  35.8303659  11.5527942  85.6569412  35.1372904  11.6272297  85.0009448
  35.5855411  10.7888286  86.1790929  42.3050784  22.2882537  84.6233929
  41.7324752  22.9072724  84.1704401  42.8783578  22.8381899  85.1573851
  45.5248044  22.5719687  85.7542512  46.4578717  22.5065249  85.9575387
  45.4371257  23.4075954  85.2957044  48.1536061  21.8885558  82.7146459
  48.0749692  21.5545421  83.6082217  48.9745728  22.3807326  82.7137931
  56.6690802  15.8163304  95.0628814  57.3994190  15.5548592  95.6236518
  56.0597747  15.0792026  95.1030882  40.8740500  11.5493326  81.9004867
  39.9671956  11.2526439  81.9767581  41.1516481  11.2523144  81.0339153
  39.6439285   8.4080262  82.0416846  40.5058449   8.7335160  82.3012663
  39.8289629   7.6211758  81.5289912  46.5796799   9.4408878  88.2408417
  45.6922654   9.7258529  88.0228612  46.9950788   9.2802642  87.3935694
  34.5881050  24.0216630  93.3279862  34.4535518  23.2617030  92.7617860
  34.1713112  24.7457529  92.8608651  45.7240013  19.2053553  82.3356437
  46.4275863  19.4103556  82.9514093  45.0002661  19.7730315  82.6005521
  46.5537823  14.9563414  88.4558708  46.4973024  15.4131966  87.6166340
  47.1066165  14.1954099  88.2781550  50.3642629  10.7453146  89.2808827
  50.1079563  10.3449782  90.1117035  49.7395497  11.4596940  89.1558966
  54.6754967  13.4849220  91.7880118  54.1154525  13.5542409  92.5611681
  54.0698470  13.3090204  91.0679615  37.7450176  24.9185947  93.5398305
  37.6282560  25.8631379  93.4376995  36.9242622  24.6159508  93.9284104
  47.6326710  19.6436082  84.3854897  48.4672314  19.2117281  84.2032372
  47.4711053  19.4718096  85.3131792  47.2872602  16.1468196  85.7511237
  47.2321406  15.9812467  84.8099681  46.6618658  16.8544229  85.9073426
  40.5258292  24.3245195  93.4164312  39.5753923  24.3247057  93.3028684
  40.8290778  23.5777930  92.9000346  56.2610985  30.1605733  94.4810074
  56.8989395  30.0412481  93.7773414  56.1431828  31.1086577  94.5398026
  53.0700692  30.1133162  94.4171599  52.7319203  29.9974226  93.5292134
  53.9390460  29.7124327  94.3972605  48.9287507  31.9668638  90.4068490
  48.3652372  31.8758575  89.6384778  48.8139902  31.1468542  90.8870982
  53.5520474  31.2668013 100.3757804  53.5409115  30.8720812  99.5038308
  53.7141114  30.5334086 100.9691576  46.4751939  33.4619830  93.2452710
  47.2673231  33.1210654  92.8299010  46.7148589  33.5714805  94.1654864
  54.5087066  35.6339606  85.7182955  53.8575046  36.2193686  85.3316969
  55.3031429  36.1645801  85.7777992  48.4342693  32.7228743  86.1170089
  49.2073569  32.1757730  85.9782965  48.7868092  33.5872992  86.3284550
  50.2727736  34.0505125  99.3236988  49.9817602  34.9550756  99.2083655
  50.9084720  34.0921653 100.0381058  51.1983942  31.4281974  95.9138348
  51.7947515  31.2037996  95.1995311  51.2558914  30.6866719  96.5163796
  50.7708971  28.8821409  83.7488539  51.0234492  28.3602930  82.9872002
  49.8333530  28.7187554  83.8515223  55.8152254  27.8857187  91.5563282
  56.6015343  27.4676610  91.2053699  56.0790958  28.7903279  91.7244931
  55.9862331  33.3230038  86.2551939  55.3508164  33.3964664  86.9672844
  55.6559737  33.9123636  85.5771018  61.2160681  27.8232421  92.4596261
  61.9485853  27.2531637  92.6934090  60.4600037  27.4354021  92.9002766
  50.4905260  30.7849515  85.9512914  50.3741518  30.1094418  86.6193998
  50.6007520  30.2981889  85.1345067  52.8336801  30.2459662  89.6559603
  52.4695008  29.7190283  90.3672525  53.6903916  29.8558131  89.4826089
  58.7386101  21.5353995  96.9190869  58.4069426  22.4049406  96.6952084
  58.1431715  21.2190279  97.5984900  52.4742288  25.2749562  84.6520952
  52.6416690  26.1429798  85.0191423  52.2839457  25.4376843  83.7282241
  55.2317621  33.7366541  96.3186782  54.9318344  34.6391579  96.2102589
  54.8868680  33.4698724  97.1707935  48.6830102  30.1880337  92.3523487
  47.7580599  30.0556552  92.5601178  48.9314515  30.9674557  92.8493429
  58.6314765  26.2549081  93.9984219  57.7231642  26.1864489  93.7042980
  58.5802360  26.7321026  94.8266045  52.4531508  27.7307219  85.6367619
  52.3331134  28.1764270  86.4753099  51.7584097  28.0792537  85.0781157
  46.0438913  29.8313611  93.1867276  46.1731294  30.0848090  94.1006687
  45.3636365  30.4241319  92.8671931  50.2138401  40.5010861  89.2857750
  50.1362430  41.4518686  89.3646230  49.6100044  40.1556733  89.9432676
  52.7055630  27.6738726 101.9419117  51.9288964  28.2332647 101.9321981
  53.3446193  28.1595509 102.4633987  60.4976411  24.4565519  95.7762093
  59.8550791  24.7498052  95.1301888  59.9931339  24.3418440  96.5815290
  58.1516575  28.2028692  86.4647953  59.0634431  28.4356079  86.2895650
  57.6426222  28.7865737  85.9023031  50.9602003  30.4824180 101.5037084
  51.7016687  31.0209224 101.2271907  50.2538988  31.1090468 101.6608635
  56.4357342  32.6253320 100.1009245  56.8440698  32.1835731  99.3563878
  55.7134604  32.0505948 100.3543438  52.7888412  27.5625927  97.4742802
  53.6349607  27.9865341  97.6177451  52.7287050  26.9059551  98.1681365
  56.7586157  33.1854511  93.8561534  56.1295019  33.3500225  93.1537602
  56.3711819  33.5996120  94.6272498  60.6375389  34.1208949  91.2105898
  59.9526427  34.5007850  90.6602931  60.7219238  34.7304275  91.9437846
  55.9387858  25.2230295  99.1323976  55.6948789  25.9772356  98.5958251
  56.2147788  25.6015643  99.9671223  57.8926320  31.7668908  97.8101241
  58.1043216  32.4100668  97.1335622  57.8456069  30.9331224  97.3423171
  55.4952549  24.3786728  94.7137813  54.6337028  24.6767982  95.0054551
  55.5214984  24.5957127  93.7818846  52.3114119  32.9228919  91.1211619
  52.7752464  33.2016622  90.3316242  52.0470917  32.0212363  90.9384710
  49.2038200  32.4700400  94.0591382  49.7739557  32.8987669  93.4208867
  49.7946312  32.1882985  94.7575568  51.2483005  29.0452071  87.9301184
  51.9507048  29.4973115  88.3975111  50.9163633  28.4035890  88.5581077
  44.9908339  27.3035624  93.2318318  44.2007393  27.5593152  92.7558428
  45.4819586  28.1183962  93.3370358  59.0072148  34.6440863  95.9823599
  59.8289592  34.2421050  95.7006280  59.0034551  34.5409097  96.9339714
  46.9423084  27.6680203  90.1901795  46.1454247  27.7798897  90.7085290
  46.7148676  28.0066855  89.3242685  52.7728752  34.1924906  98.1384309
  52.8373184  34.6545314  98.9742481  52.0639676  33.5622271  98.2666619
  43.2746042  27.5566114  95.6633309  43.5254080  28.4413124  95.9290885
  43.8105590  27.3770716  94.8908400  67.0978141  30.9879612  92.3308570
  66.3441850  30.4187010  92.1752575  67.2325683  30.9542276  93.2779205
  52.4876769  35.8593014  88.0063289  52.3522444  36.7044550  88.4348137
  53.0286582  36.0612292  87.2429223  45.9406167  33.3768452  88.5791215
  46.4530687  34.1711702  88.7296779  46.5928880  32.6794742  88.5124816
  47.7501052  36.4934208  90.6613968  47.9267680  37.4152173  90.4734952
  48.5457885  36.1792627  91.0908348  54.1145246  36.4816580 102.1363632
  53.6709100  35.6952959 101.8184536  54.7762459  36.6695731 101.4707522
  48.8732367  38.0112382  96.6624310  49.4239792  37.8829445  95.8901304
  48.0343843  38.3107271  96.3119203  56.2126484  36.7619380 100.1645033
  56.1944959  37.5828261  99.6725302  57.1346404  36.6373456 100.3895174
  52.6699538  34.2763510 101.0068541  53.2027875  33.5151798 100.7767849
  52.1413619  33.9837162 101.7492696  55.8369233  19.3823576  96.5362183
  55.4933502  20.2725217  96.4601294  56.2048196  19.1925233  95.6731768
  43.9055084  31.7057106  89.3550785  44.7430306  32.1154115  89.1384493
  44.0833351  30.7656548  89.3250979  55.8019516  29.3732187  85.0434618
  55.2866139  30.1436792  85.2823005  55.5296824  28.6997323  85.6667680
  53.3866627  24.2181888  90.1019856  52.5308223  23.8288738  89.9225495
  53.7993579  24.2973848  89.2419642  54.9165773  21.7528231  94.5011416
  54.4130569  21.7158366  93.6879222  55.2096380  22.6620974  94.5608073
  51.1608659  21.8366961  93.5077598  52.0261656  21.6409769  93.1483487
  51.2286168  21.6077312  94.4346955  60.7753790  32.1264542  86.9787792
  59.9983233  31.7875701  86.5342954  61.4545271  32.1317165  86.3042757
  55.5905819  27.2459279  86.8694399  55.2855954  27.5605428  87.7204542
  56.5436261  27.3240699  86.9121732  54.0352251  33.4049502  88.5187353
  53.5073612  32.6702262  88.2060591  53.5339753  34.1824179  88.2727322
  59.0145097  31.5998523  93.6354400  58.3568771  32.2897784  93.7234528
  59.8185496  31.9894955  93.9788386  48.7670978  24.0669169  90.8793965
  49.3414730  23.8444350  90.1467158  49.3541961  24.1357863  91.6322566
  57.8250556  29.9542895  91.6858341  58.3382437  30.5872887  92.1880051
  58.4751779  29.3544091  91.3201701  49.0940565  26.0973630  84.8989850
  48.2577878  26.4348316  85.2199125  48.9545335  25.9622609  83.9616987
  51.0693646  20.9410417  89.6069034  50.4158058  20.6259435  88.9825649
  51.0274120  20.3186158  90.3328857  52.1804851  31.2229713  81.5222326
  51.2731913  30.9918966  81.7213475  52.6775883  30.4267332  81.7096308
  55.0872930  39.9327220  84.4419012  54.4134629  40.2358917  85.0503970
  55.4738752  40.7356300  84.0924469  54.3031386  27.4292351  93.9316682
  53.3853948  27.6507298  93.7738370  54.7191530  27.5038662  93.0728389
  55.0866434  28.8283767  89.0619362  55.8338253  29.3405164  88.7526484
  55.3558024  28.5067819  89.9223756  53.3593084  31.3242307  86.0446316
  52.4504304  31.0401340  86.1418786  53.3888168  31.7441386  85.1849623
  58.5912352  34.9348897  89.8137484  58.1374679  34.0939807  89.8702674
  57.9606318  35.5710295  90.1512264  57.5345271  25.8640883  91.0438151
  56.7968028  25.3518269  91.3748394  57.7872045  25.4241265  90.2321428
  57.0345291  36.7725394  90.7487302  57.3268265  37.3330451  90.0299668
  57.5443912  37.0653955  91.5040461  57.6356899  18.6417135  91.6379921
  57.9415775  17.7814498  91.3505836  58.3609503  19.2334755  91.4378915
  43.9281255  29.0447822  90.0261519  43.7305655  28.4517182  89.3012585
  43.3727919  28.7400032  90.7437457  51.9077978  28.9370928  92.1456112
  51.9626588  27.9844764  92.0698588  51.0969180  29.0930367  92.6297410
  53.0569172  32.8651051  83.3834395  52.6188602  32.1486910  82.9240032
  53.7979613  33.0927166  82.8219486  49.8470338  27.5547988  89.9046491
  49.0338204  27.8542158  90.3111683  50.3429333  27.1603677  90.6220973
  51.9978916  37.5505745  91.8380755  51.9555095  37.7766591  90.9089287
  52.9141615  37.3169119  91.9866556  55.4444550  28.0189812  98.7361384
  55.7993938  28.2461285  99.5955850  56.0916681  28.3508189  98.1138640
  61.1742287  31.1408248  89.4410714  61.0360186  31.3309844  88.5131903
  60.8178506  31.9027631  89.8978765  49.3384413  25.1266343  95.5207726
  49.9783792  24.9855102  94.8230689  48.5061944  24.8400857  95.1446328
  61.2011667  33.2084775  94.4521985  61.6348173  33.1160064  95.3005039
  61.9143247  33.1842276  93.8142001  50.1144717  34.4268774  91.6342718
  50.9085315  33.9319094  91.4325293  49.4036409  33.8986637  91.2710424
  54.9339561  36.8086869  95.9855086  54.9876584  37.3777806  96.7532802
  54.0654343  36.9788754  95.6209123  46.4227480  28.5711855  87.7102471
  45.4925069  28.5096311  87.9272433  46.5184952  28.0487808  86.9139112
  46.3413029  25.0966668  90.2980712  46.6019847  26.0112002  90.1889873
  47.1630202  24.6291111  90.4477325  47.8137955  26.5104425  97.4679537
  48.4861008  26.3021788  96.8192186  46.9867741  26.3126511  97.0284769
  62.0627216  33.2508476  96.9854870  62.2563106  34.1554286  97.2314145
  61.9627834  32.7915895  97.8193455  53.7163527  23.1366366  99.4845198
  53.0691442  23.8356316  99.3909674  54.4864542  23.5702510  99.8521446
  57.1242325  33.4015219 102.5595751  56.9727831  33.1725770 101.6425835
  57.1147004  34.3585820 102.5727096  53.8927661  30.9747131  97.5442017
  54.8219721  31.1258291  97.3710985  53.4718691  31.0631152  96.6890664
  52.6915993  34.9997796  95.3140555  52.5527079  34.6316580  96.1866493
  51.9030589  35.5145435  95.1424513  53.2864145  40.1006892  86.6566092
  53.4615901  39.6294935  87.4711714  52.5996933  40.7272658  86.8847352
  54.2421208  34.3779398  92.7029393  53.9071041  34.3380168  93.5987043
  53.7425154  33.7124114  92.2299803  48.2165452  29.7847028  98.2281974
  48.0785250  29.0527267  98.8293513  49.1270376  29.6955929  97.9466162
  57.1780400  31.7235433  82.9766453  56.5609570  30.9982261  82.8799505
  56.7096888  32.4844793  82.6333527  50.8447753  29.4966988  97.7165654
  51.5547371  28.8560180  97.6752272  50.8017061  29.7479883  98.6391834
  58.8334531  36.4334341 100.6372233  58.7747078  35.7493561  99.9702816
  59.2354050  37.1753331 100.1852859  49.5576687  26.4832206  99.5361293
  49.0214044  26.0322944 100.1882889  48.9693395  26.6178114  98.7931758
  47.8525230  43.2496255  93.4305952  48.0921828  43.8814779  94.1084970
  47.0094427  42.8984295  93.7171311  48.9678946  25.9420857  82.0987757
  48.0908412  25.8209658  81.7350003  49.4436699  25.1506935  81.8466645
  58.8351939  34.3973925  98.8686213  57.9478717  34.0599847  98.9912611
  59.4050490  33.6656956  99.1054978  40.4881086  30.7298017  92.1929264
  41.1752126  30.4159747  91.6050279  40.3329215  31.6339381  91.9196515
  45.2915808  25.6188213  96.6214288  45.2073997  25.0113883  95.8864698
  44.4698514  26.1097232  96.6223784  52.3653092  39.0575377  95.8347456
  52.2923264  39.8630349  96.3466760  51.9230485  39.2567343  95.0095477
  52.1542872  38.2947147  89.3450277  51.3710394  38.8368828  89.4388502
  52.8535617  38.8121127  89.7444518  55.4639522  24.1041777  91.9884483
  55.9608221  23.3511739  91.6685553  54.6926503  24.1406094  91.4227692
  63.3169279  29.8082142  93.6302774  63.3059155  30.6906858  93.2596707
  62.4486659  29.4553693  93.4357311  54.8251776  38.9562211  97.9905614
  55.5379748  39.5909676  97.9181516  54.3341804  39.0526077  97.1745616
  56.5469303  32.8613464  89.5622906  55.6125581  32.9814927  89.3927610
  56.7245971  31.9585931  89.2982916  52.0474491  26.2459160  91.7156167
  51.6772278  25.6930200  92.4037073  52.5433583  25.6417293  91.1631167
  59.9341854  28.7030783  90.0972940  60.4002306  29.5358775  90.0233243
  60.3849354  28.2375765  90.8018199  49.8763689  36.7056655  98.8111185
  50.5773149  37.3393138  98.9640579  49.4058804  37.0471386  98.0506825
  58.0018085  35.0474605  87.0959092  58.2777929  34.9331199  88.0052966
  57.1322584  34.6492090  87.0571265  57.9058517  21.0711370  94.1363842
  56.9921596  21.3015597  94.3046049  58.3351618  21.1549814  94.9877874
  57.6764975  29.2601262  96.6363736  57.0236425  29.5077170  95.9816188
  58.0545355  28.4465401  96.3026213  54.6372149  39.2960956  90.7391906
  54.8194544  38.4782611  91.2019658  55.4605135  39.5128648  90.3016796
  54.9714314  38.2229141  88.0006954  55.5002081  37.7121595  87.3877116
  55.2342534  37.9071671  88.8652487  53.7252548  30.0021073 103.1229773
  53.0493185  29.9015203 103.7932148  54.5480182  29.8460287 103.5865770
  45.4731407  36.2393010  95.7442288  46.0584844  35.4936698  95.8770192
  45.2756246  36.5496967  96.6278952  48.3270062  39.2744257  90.7604730
  47.6580438  39.7590385  90.2768770  48.1882932  39.5213478  91.6748109
  40.0649062  28.8098610  94.4646731  40.1033161  28.2762201  95.2583849
  39.5589355  28.2833816  93.8457708  52.4675331  41.3088001  97.3587389
  53.0193639  41.4719622  98.1236474  52.8081524  41.8992439  96.6867414
  47.4439824  23.6563151  97.9609273  47.5081151  24.5177982  97.5486671
  47.3806944  23.0437152  97.2281632  57.3186205  36.1349258 103.2136043
  57.8626109  36.7479217 102.7190998  56.7373050  36.6928837 103.7303056
  43.6957640  27.5362712  87.5400662  43.9911081  26.6273391  87.4867716
  42.7945675  27.5150452  87.2181665  55.6043718  39.2569976  94.3451071
  55.4794858  38.4559716  93.8362016  56.2622809  39.7516170  93.8565041
  47.2251887  25.6118709  93.5228211  46.5038472  26.2254677  93.3835684
  48.0145142  26.1476474  93.4444857  57.6678627  37.0578996  95.9730621
  56.7208962  36.9384348  95.9008948  58.0161400  36.1701494  96.0556882
  45.4245481  25.2176810  87.6639988  45.0958187  24.3374189  87.4815094
  45.7784852  25.1624479  88.5516377  54.6725060  36.8531713  92.1734973
  54.5250022  35.9248420  92.3542543  55.4978553  36.8751803  91.6892048
  48.5387304  25.5049780  88.0315465  48.8783377  26.0335701  87.3094074
  48.9859425  25.8430186  88.8074032  58.2759182  37.6760271  93.2599846
  59.2005729  37.4703133  93.1224297  58.1074485  37.4276673  94.1689187
  51.2330745  23.8886830  97.4818533  50.8927565  23.0894644  97.8839213
  50.5269751  24.1888541  96.9095367  51.8847217  20.9736143  95.9345856
  52.7073286  20.4996621  95.8124747  52.1285280  21.7526627  96.4344543
  50.5255451  24.0024401  86.2308758  51.2463814  24.3805654  85.7272475
  49.9020756  24.7213278  86.3343736  54.6686574  24.7069550  87.1667090
  54.8850189  25.5894188  86.8655919  54.1880641  24.3155764  86.4372732
  49.4085796  27.6655264  93.7437835  49.2630376  27.9795567  94.6362116
  48.9310999  28.2840164  93.1908734  51.2682179  24.6557812  93.7918725
  51.2543747  23.7598905  93.4551022  51.9854607  24.6628475  94.4257011
  53.1208309  25.0895152  95.8371852  52.8626087  26.0112222  95.8356182
  52.5893350  24.6925586  96.5272316  58.0654498  38.1945939  88.6161937
  58.2391376  37.6292361  87.8635790  58.5583389  38.9946834  88.4341427
  43.8831458  30.2060608  96.6825496  43.3384926  30.9820416  96.8145770
  44.7610808  30.5531412  96.5244618  50.6719074  23.5372192  89.0606295
  50.7934986  22.6088838  89.2597182  50.3821117  23.5510878  88.1484610
  53.5410265  21.2227102  92.1973015  53.5631962  21.2866435  91.2424994
  53.9578324  20.3831611  92.3913521  63.9193889  30.9582362  90.2352237
  64.3625035  30.2089687  89.8371360  63.0420399  30.9492498  89.8525969
  59.0529671  37.5112703  85.7158836  59.7480575  38.1319396  85.9346150
  59.3952821  36.6608054  85.9911214  44.6697480  29.3330504  99.5755653
  43.9279216  29.4813140 100.1620283  44.3490224  29.5938770  98.7122402
  60.9521094  34.9612409  87.2446166  61.4772418  35.2999682  86.5195486
  60.8643446  34.0259424  87.0609301  52.6141142  38.8746482  99.3736043
  52.9228269  38.6295629 100.2458743  53.4116624  39.0793121  98.8854913
  52.6361754  41.0284392  91.6041420  52.1966745  40.5360771  92.2974276
  53.3869871  40.4857360  91.3633495  45.1154093  37.2195933  91.6066048
  45.9412113  36.9199705  91.2264691  44.7648145  36.4503555  92.0555836
  50.0835627  36.5722401  93.6763721  49.4615636  35.9093106  93.3765949
  50.7540493  36.5983533  92.9937369  43.3162698  35.1382259  92.5654981
  42.4794607  34.7104434  92.3838983  43.2886344  35.3314703  93.5025772
  60.6415000  35.5945312 102.5497364  59.8510543  35.5769451 102.0101864
  60.4048354  36.1333606 103.3046401  60.7612875  32.4437779  99.8630093
  60.8110880  32.2787786 100.8045616  60.6526798  31.5765038  99.4727974
  49.6449133  35.1226325  87.1522182  49.7937254  35.8061789  86.4988855
  50.4515577  35.1031415  87.6671638  58.0516637  28.4268707 101.1789400
  58.9526500  28.2875172 100.8873397  58.1264612  28.5923162 102.1187577
  52.3859442  25.8035562 100.0242586  51.5162752  26.0969128  99.7525174
  52.6218923  26.3876007 100.7449850  62.2631072  34.8634720 100.1072114
  61.9715880  35.2264701 100.9435575  61.6503203  34.1501729  99.9285447
  63.4626754  32.4287600  92.6274685  64.2973645  32.8677404  92.7912245
  63.5985883  31.9526253  91.8082930  60.5118260  29.9867335  98.5752172
  60.9872381  30.1794981  97.7671024  59.5883825  30.0426521  98.3295556
  47.4001766  31.1491502  88.1583251  47.1547808  30.2453832  88.3563461
  47.5697681  31.1508653  87.2162729  55.0898476  22.0215179  97.5408006
  55.6080420  22.7576205  97.2154495  54.7353609  22.3279172  98.3754765
  46.6697414  26.8819860  85.6569412  45.9766659  26.9564215  85.0009448
  46.4249166  26.1180203  86.1790929  55.3411070  18.4415461  93.0608903
  55.6212824  17.7738650  93.6869329  56.1261677  18.6344557  92.5483567
  53.1444539  37.6174455  84.6233929  52.5718506  38.2364642  84.1704401
  53.7177333  38.1673817  85.1573851  59.2119929  26.8633095  96.8080478
  60.1637352  26.9631193  96.8292702  59.0423379  26.0711364  97.3178562
  57.2334308  23.9488678  96.9939879  56.6384240  24.2293691  96.2986368
  56.9484005  24.4382579  97.7656620  56.3641799  37.9011605  85.7542512
  57.2972472  37.8357167  85.9575387  56.2765012  38.7367872  85.2957044
  58.9929815  37.2177475  82.7146459  58.9143447  36.8837339  83.6082217
  59.8139482  37.7099243  82.7137931  61.6908007  30.0839215  95.9222778
  61.6584327  29.1455215  96.1082462  62.3008630  30.1623251  95.1888603
  53.5291337  28.9535268  81.9649982  54.4750442  28.8241476  82.0338400
  53.1505582  28.2149930  82.4419410  61.8402495  26.8750258  95.9681061
  61.3241544  26.0908715  95.7810990  62.7242444  26.5468975  96.1327580
  59.5013222  20.6191274  91.9276874  59.3038043  20.3106362  92.8120206
  60.1112928  21.3452913  92.0574803  67.5084556  31.1455222  95.0628814
  68.2387945  30.8840510  95.6236518  66.8991502  30.4083944  95.1030882
  65.5899854  29.2863084  95.6603266  64.8633017  29.1519049  95.0519757
  65.1747140  29.5939913  96.4659984  53.4130030  33.0053014 103.4250639
  54.3333039  33.1831613 103.6190685  53.3779613  32.0609059 103.2730338
  51.7134255  26.8785244  81.9004867  50.8065710  26.5818357  81.9767581
  51.9910236  26.5815062  81.0339153  42.6312195  28.1991607  92.3503913
  42.3114979  27.3456916  92.0578287  42.0845623  28.4140186  93.1061881
  46.4092103  30.9154048  96.0673420  46.6278112  31.8471156  96.0861454
  46.8217876  30.5562023  96.8528224  53.3296320  21.4222134  88.0549108
  52.5197049  21.0769219  88.4304354  54.0180737  21.1129678  88.6436720
  55.2586869  20.5000181  89.6773405  55.8117907  20.9195634  90.3363428
  55.4956955  19.5735929  89.7196361  50.4833039  23.7372179  82.0416846
  51.3452203  24.0627078  82.3012663  50.6683383  22.9503675  81.5289912
  42.5000455  31.8194519  94.3197035  41.8063926  31.4048472  93.8066989
  43.2473446  31.8615055  93.7230454  58.6365676  22.6100706  89.1852069
  58.0564345  23.2685510  88.8030122  58.3701608  21.7878050  88.7739487
  57.0869242  22.0105763  91.3873389  57.5869020  22.1222298  90.5787708
  57.7304850  21.7066816  92.0274198  44.4137198  31.7512773  92.1963050
  44.3907886  31.8500460  91.2444933  44.7237834  32.5977924  92.5180216
  47.0724575  33.8088928  96.3109664  48.0267829  33.7772870  96.2439596
  46.8737099  33.3479552  97.1259890  47.6623958  32.3790044  98.8780462
  48.4816847  32.8734123  98.9015299  47.9360765  31.4622012  98.8498029
  57.4190554  24.7700796  88.2408417  56.5316409  25.0550447  88.0228612
  57.8344543  24.6094560  87.3935694  60.7705090  24.7947317  91.9562757
  61.5465480  25.2843770  92.2287373  60.0453224  25.2205371  92.4134626
  63.2077649  25.5074936  93.0136697  63.8022139  25.2670672  92.3030006
  63.2804232  24.7882067  93.6410234  45.4274804  39.3508547  93.3279862
  45.2929272  38.5908948  92.7617860  45.0106866  40.0749447  92.8608651
  56.5633767  34.5345471  82.3356437  57.2669617  34.7395473  82.9514093
  55.8396416  35.1022233  82.6005521  57.3931577  30.2855332  88.4558708
  57.3366779  30.7423884  87.6166340  57.9459920  29.5246017  88.2781550
  61.2036383  26.0745064  89.2808827  60.9473318  25.6741700  90.1117035
  60.5789251  26.7888858  89.1558966  65.5148721  28.8141137  91.7880118
  64.9548279  28.8834327  92.5611681  64.9092225  28.6382122  91.0679615
  48.5843930  40.2477864  93.5398305  48.4676314  41.1923297  93.4376995
  47.7636376  39.9451426  93.9284104  58.4720465  34.9728000  84.3854897
  59.3066069  34.5409198  84.2032372  58.3104808  34.8010014  85.3131792
  58.1266357  31.4760113  85.7511237  58.0715161  31.3104385  84.8099681
  57.5012412  32.1836146  85.9073426  55.4412264  33.7809025 105.0764800
  56.3103424  33.9549677 104.7151434  54.9619015  34.6003442 104.9540529
  51.4362482  20.9768222  85.3296555  51.4241152  21.9210062  85.4864826
  52.3285904  20.7938368  85.0356016  49.6098444  40.9006126  96.7554233
  50.5125691  40.9329736  97.0720728  49.3835814  39.9706577  96.7700569
  51.3652046  39.6537113  93.4164312  50.4147677  39.6538974  93.3028684
  51.6684532  38.9069847  92.9000346  55.2514602  17.5710999  89.5842492
  54.4846998  17.0169486  89.7299174  55.6625307  17.6432868  90.4456644
  67.1004740  45.4897651  94.4810074  67.7383150  45.3704398  93.7773414
  66.9825583  46.4378495  94.5398026  63.9094446  45.4425079  94.4171599
  63.5712958  45.3266144  93.5292134  64.7784214  45.0416244  94.3972605
  59.7681262  47.2960556  90.4068490  59.2046127  47.2050493  89.6384778
  59.6533657  46.4760460  90.8870982  64.3914229  46.5959931 100.3757804
  64.3802870  46.2012729  99.5038308  64.5534868  45.8626004 100.9691576
  57.3145694  48.7911747  93.2452710  58.1066986  48.4502572  92.8299010
  57.5542344  48.9006722  94.1654864  65.3480820  50.9631523  85.7182955
  64.6968800  51.5485604  85.3316969  66.1425183  51.4937718  85.7777992
  61.1121490  49.3797043  99.3236988  60.8211356  50.2842674  99.2083655
  61.7478474  49.4213570 100.0381058  62.0377697  46.7573891  95.9138348
  62.6341269  46.5329914  95.1995311  62.0952669  46.0158637  96.5163796
  66.6546008  43.2149105  91.5563282  67.4409097  42.7968528  91.2053699
  66.9184713  44.1195197  91.7244931  66.8256086  48.6521955  86.2551939
  66.1901919  48.7256582  86.9672844  66.4953492  49.2415554  85.5771018
  72.0554435  43.1524338  92.4596261  72.7879607  42.5823555  92.6934090
  71.2993791  42.7645939  92.9002766  61.3299014  46.1141433  85.9512914
  61.2135272  45.4386336  86.6193998  61.4401274  45.6273807  85.1345067
  63.6730555  45.5751580  89.6559603  63.3088762  45.0482201  90.3672525
  64.5297671  45.1850049  89.4826089  69.5779856  36.8645912  96.9190869
  69.2463180  37.7341323  96.6952084  68.9825469  36.5482196  97.5984900
  63.3136042  40.6041479  84.6520952  63.4810444  41.4721716  85.0191423
  63.1233211  40.7668761  83.7282241  66.0711375  49.0658458  96.3186782
  65.7712098  49.9683497  96.2102589  65.7262435  48.7990641  97.1707935
  59.5223857  45.5172255  92.3523487  58.5974353  45.3848469  92.5601178
  59.7708270  46.2966474  92.8493429  69.4708519  41.5840998  93.9984219
  68.5625396  41.5156407  93.7042980  69.4196115  42.0612943  94.8266045
  63.2925263  43.0599137  85.6367619  63.1724888  43.5056188  86.4753099
  62.5977851  43.4084455  85.0781157  56.8832668  45.1605529  93.1867276
  57.0125049  45.4140008  94.1006687  56.2030119  45.7533237  92.8671931
  61.0532155  55.8302779  89.2857750  60.9756185  56.7810604  89.3646230
  60.4493799  55.4848651  89.9432676  63.5449385  43.0030644 101.9419117
  62.7682719  43.5624564 101.9321981  64.1839948  43.4887427 102.4633987
  71.3370165  39.7857437  95.7762093  70.6944546  40.0789970  95.1301888
  70.8325094  39.6710357  96.5815290  68.9910329  43.5320610  86.4647953
  69.9028185  43.7647997  86.2895650  68.4819976  44.1157654  85.9023031
  61.7995757  45.8116097 101.5037084  62.5410441  46.3501141 101.2271907
  61.0932743  46.4382386 101.6608635  67.2751097  47.9545238 100.1009245
  67.6834453  47.5127648  99.3563878  66.5528358  47.3797865 100.3543438
  63.6282167  42.8917845  97.4742802  64.4743362  43.3157258  97.6177451
  63.5680804  42.2351469  98.1681365  67.5979911  48.5146429  93.8561534
  66.9688774  48.6792143  93.1537602  67.2105573  48.9288038  94.6272498
  71.4769143  49.4500866  91.2105898  70.7920181  49.8299768  90.6602931
  71.5612993  50.0596193  91.9437846  66.7781612  40.5522213  99.1323976
  66.5342544  41.3064274  98.5958251  67.0541543  40.9307561  99.9671223
  68.7320075  47.0960825  97.8101241  68.9436970  47.7392585  97.1335622
  68.6849823  46.2623142  97.3423171  66.3346304  39.7078646  94.7137813
  65.4730783  40.0059900  95.0054551  66.3608738  39.9249045  93.7818846
  63.1507873  48.2520837  91.1211619  63.6146219  48.5308540  90.3316242
  62.8864671  47.3504281  90.9384710  60.0431954  47.7992318  94.0591382
  60.6133311  48.2279587  93.4208867  60.6340066  47.5174903  94.7575568
  62.0876759  44.3743989  87.9301184  62.7900803  44.8265033  88.3975111
  61.7557388  43.7327808  88.5581077  60.5357121  42.9655746 102.3052394
  59.9055781  43.6472026 102.5387790  60.4293209  42.8538827 101.3605532
  55.8302093  42.6327542  93.2318318  55.0401147  42.8885070  92.7558428
  56.3213341  43.4475879  93.3370358  69.8465903  49.9732781  95.9823599
  70.6683347  49.5712968  95.7006280  69.8428306  49.8701015  96.9339714
  57.7816839  42.9972121  90.1901795  56.9848002  43.1090815  90.7085290
  57.5542431  43.3358773  89.3242685  63.6122506  49.5216824  98.1384309
  63.6766939  49.9837231  98.9742481  62.9033430  48.8914189  98.2666619
  54.1139796  42.8858032  95.6633309  54.3647835  43.7705042  95.9290885
  54.6499345  42.7062634  94.8908400  77.9371896  46.3171529  92.3308570
  77.1835604  45.7478927  92.1752575  78.0719437  46.2834194  93.2779205
  63.3270524  51.1884932  88.0063289  63.1916199  52.0336467  88.4348137
  63.8680336  51.3904209  87.2429223  59.8137864  37.2676511 104.6677645
  59.4204809  36.7142710 105.3425289  60.6304004  37.5787090 105.0584162
  56.7799921  48.7060370  88.5791215  57.2924442  49.5003620  88.7296779
  57.4322634  48.0086660  88.5124816  58.5894806  51.8226126  90.6613968
  58.7661434  52.7444091  90.4734952  59.3851640  51.5084545  91.0908348
  62.7305825  38.6834391 102.2597901  63.4715538  39.2841544 102.1802364
  62.9623747  37.9412028 101.7015944  57.8747163  43.8690758 100.5376131
  57.7600678  42.9676015 100.8383230  57.0191680  44.1154455 100.1860948
  64.9539000  51.8108498 102.1363632  64.5102854  51.0244877 101.8184536
  65.6156214  51.9987649 101.4707522  59.7126121  53.3404300  96.6624310
  60.2633547  53.2121363  95.8901304  58.8737597  53.6399189  96.3119203
  67.0520238  52.0911298 100.1645033  67.0338714  52.9120179  99.6725302
  67.9740158  51.9665373 100.3895174  63.5093293  49.6055428 101.0068541
  64.0421629  48.8443716 100.7767849  62.9807374  49.3129079 101.7492696
  66.6762987  34.7115493  96.5362183  66.3327257  35.6017135  96.4601294
  67.0441950  34.5217151  95.6731768  54.7448838  47.0349024  89.3550785
  55.5824060  47.4446032  89.1384493  54.9227106  46.0948466  89.3250979
  64.2260381  39.5473805  90.1019856  63.3701978  39.1580656  89.9225495
  64.6387333  39.6265766  89.2419642  65.7559528  37.0820149  94.5011416
  65.2524323  37.0450284  93.6879222  66.0490135  37.9912891  94.5608073
  62.0002414  37.1658878  93.5077598  62.8655411  36.9701687  93.1483487
  62.0679923  36.9369230  94.4346955  71.6147544  47.4556459  86.9787792
  70.8376987  47.1167619  86.5342954  72.2939025  47.4609082  86.3042757
  66.4299573  42.5751197  86.8694399  66.1249709  42.8897346  87.7204542
  67.3830016  42.6532617  86.9121732  64.8746005  48.7341420  88.5187353
  64.3467367  47.9994180  88.2060591  64.3733508  49.5116096  88.2727322
  69.8538851  46.9290440  93.6354400  69.1962526  47.6189702  93.7234528
  70.6579250  47.3186872  93.9788386  59.6064733  39.3961086  90.8793965
  60.1808485  39.1736268  90.1467158  60.1935715  39.4649781  91.6322566
  68.6644310  45.2834813  91.6858341  69.1776192  45.9164805  92.1880051
  69.3145534  44.6836009  91.3201701  59.9334320  41.4265547  84.8989850
  59.0971632  41.7640234  85.2199125  59.7939090  41.2914527  83.9616987
  61.9087401  36.2702335  89.6069034  61.2551813  35.9551352  88.9825649
  61.8667875  35.6478076  90.3328857  65.1425141  42.7584269  93.9316682
  64.2247702  42.9799216  93.7738370  65.5585285  42.8330579  93.0728389
  65.9260189  44.1575684  89.0619362  66.6732008  44.6697082  88.7526484
  66.1951778  43.8359737  89.9223756  64.1986839  46.6534225  86.0446316
  63.2898058  46.3693258  86.1418786  64.2281923  47.0733304  85.1849623
  69.4306106  50.2640815  89.8137484  68.9768433  49.4231724  89.8702674
  68.8000073  50.9002213  90.1512264  68.3739026  41.1932801  91.0438151
  67.6361783  40.6810187  91.3748394  68.6265799  40.7533182  90.2321428
  67.8739046  52.1017311  90.7487302  68.1662020  52.6622368  90.0299668
  68.3837666  52.3945872  91.5040461  68.4750653  33.9709053  91.6379921
  68.7809530  33.1106416  91.3505836  69.2003258  34.5626673  91.4378915
  54.7675009  44.3739739  90.0261519  54.5699409  43.7809100  89.3012585
  54.2121673  44.0691949  90.7437457  62.7471733  44.2662846  92.1456112
  62.8020343  43.3136682  92.0698588  61.9362935  44.4222285  92.6297410
  60.6864093  42.8839905  89.9046491  59.8731958  43.1834076  90.3111683
  61.1823087  42.4895594  90.6220973  62.8372671  52.8797662  91.8380755
  62.7948849  53.1058509  90.9089287  63.7535370  52.6461037  91.9866556
  66.2838304  43.3481730  98.7361384  66.6387692  43.5753203  99.5955850
  66.9310436  43.6800107  98.1138640  72.0136041  46.4700166  89.4410714
  71.8753940  46.6601762  88.5131903  71.6572260  47.2319549  89.8978765
  60.1778168  40.4558261  95.5207726  60.8177547  40.3147020  94.8230689
  59.3455698  40.1692774  95.1446328  72.0405421  48.5376693  94.4521985
  72.4741928  48.4451982  95.3005039  72.7537002  48.5134193  93.8142001
  60.9538471  49.7560691  91.6342718  61.7479070  49.2611012  91.4325293
  60.2430164  49.2278555  91.2710424  65.7733316  52.1378787  95.9855086
  65.8270338  52.7069723  96.7532802  64.9048097  52.3080672  95.6209123
  57.2621235  43.9003773  87.7102471  56.3318823  43.8388229  87.9272433
  57.3578707  43.3779726  86.9139112  57.1806784  40.4258586  90.2980712
  57.4413601  41.3403919  90.1889873  58.0023956  39.9583029  90.4477325
  58.6531709  41.8396343  97.4679537  59.3254763  41.6313705  96.8192186
  57.8261496  41.6418429  97.0284769  72.9020971  48.5800393  96.9854870
  73.0956861  49.4846204  97.2314145  72.8021589  48.1207813  97.8193455
  64.5557281  38.4658284  99.4845198  63.9085196  39.1648234  99.3909674
  65.3258297  38.8994428  99.8521446  67.9636079  48.7307136 102.5595751
  67.8121586  48.5017688 101.6425835  67.9540759  49.6877738 102.5727096
  64.7321416  46.3039049  97.5442017  65.6613476  46.4550209  97.3710985
  64.3112446  46.3923070  96.6890664  63.5309747  50.3289713  95.3140555
  63.3920833  49.9608498  96.1866493  62.7424344  50.8437353  95.1424513
  64.1257899  55.4298810  86.6566092  64.3009655  54.9586853  87.4711714
  63.4390687  56.0564576  86.8847352  59.0559207  45.1138946  98.2281974
  58.9179005  44.3819185  98.8293513  59.9664130  45.0247846  97.9466162
  61.6841507  44.8258905  97.7165654  62.3941126  44.1852098  97.6752272
  61.6410815  45.0771800  98.6391834  69.6728286  51.7626259 100.6372233
  69.6140832  51.0785479  99.9702816  70.0747804  52.5045249 100.1852859
  60.3970441  41.8124123  99.5361293  59.8607798  41.3614862 100.1882889
  59.8087150  41.9470032  98.7931758  58.6918985  58.5788173  93.4305952
  58.9315583  59.2106697  94.1084970  57.8488181  58.2276213  93.7171311
  59.8072700  41.2712775  82.0987757  58.9302166  41.1501576  81.7350003
  60.2830453  40.4798853  81.8466645  69.6745693  49.7265843  98.8686213
  68.7872472  49.3891765  98.9912611  70.2444244  48.9948874  99.1054978
  51.3274840  46.0589934  92.1929264  52.0145880  45.7451664  91.6050279
  51.1722969  46.9631299  91.9196515  56.1309562  40.9480131  96.6214288
  56.0467751  40.3405801  95.8864698  55.3092269  41.4389149  96.6223784
  63.2046847  54.3867295  95.8347456  63.1317018  55.1922267  96.3466760
  62.7624240  54.5859261  95.0095477  62.9936626  53.6239065  89.3450277
  62.2104148  54.1660745  89.4388502  63.6929371  54.1413045  89.7444518
  66.3033276  39.4333695  91.9884483  66.8001976  38.6803657  91.6685553
  65.5320258  39.4698011  91.4227692  74.1563034  45.1374060  93.6302774
  74.1452910  46.0198776  93.2596707  73.2880413  44.7845611  93.4357311
  65.6645530  54.2854129  97.9905614  66.3773502  54.9201594  97.9181516
  65.1735559  54.3817995  97.1745616  67.3863057  48.1905382  89.5622906
  66.4519336  48.3106844  89.3927610  67.5639725  47.2877849  89.2982916
  62.8868245  41.5751078  91.7156167  62.5166033  41.0222118  92.4037073
  63.3827338  40.9709211  91.1631167  70.7735608  44.0322701  90.0972940
  71.2396061  44.8650693  90.0233243  71.2243109  43.5667683  90.8018199
  60.7157444  52.0348573  98.8111185  61.4166903  52.6685056  98.9640579
  60.2452559  52.3763304  98.0506825  68.8411839  50.3766522  87.0959092
  69.1171683  50.2623117  88.0052966  67.9716338  49.9784007  87.0571265
  68.7452271  36.4003288  94.1363842  67.8315351  36.6307515  94.3046049
  69.1745373  36.4841732  94.9877874  68.5158730  44.5893180  96.6363736
  67.8630180  44.8369087  95.9816188  68.8939110  43.7757318  96.3026213
  65.4765903  54.6252873  90.7391906  65.6588298  53.8074529  91.2019658
  66.2998890  54.8420565  90.3016796  65.8108069  53.5521058  88.0006954
  66.3395835  53.0413513  87.3877116  66.0736289  53.2363589  88.8652487
  64.5646303  45.3312991 103.1229773  63.8886940  45.2307120 103.7932148
  65.3873937  45.1752205 103.5865770  56.3125162  51.5684928  95.7442288
  56.8978599  50.8228616  95.8770192  56.1150000  51.8788884  96.6278952
  59.1663817  54.6036175  90.7604730  58.4974192  55.0882303  90.2768770
  59.0276687  54.8505395  91.6748109  50.9042816  44.1390528  94.4646731
  50.9426916  43.6054119  95.2583849  50.3983109  43.6125733  93.8457708
  63.3069086  56.6379919  97.3587389  63.8587394  56.8011540  98.1236474
  63.6475279  57.2284356  96.6867414  58.2833579  38.9855068  97.9609273
  58.3474905  39.8469899  97.5486671  58.2200699  38.3729070  97.2281632
  57.7585851  41.0578201 101.6082308  58.3857890  40.6755278 102.2219832
  56.9013770  40.8392403 101.9738000  68.1579960  51.4641176 103.2136043
  68.7019864  52.0771134 102.7190998  67.5766805  52.0220754 103.7303056
  54.5351394  42.8654630  87.5400662  54.8304835  41.9565308  87.4867716
  53.6339430  42.8442369  87.2181665  66.4437473  54.5861894  94.3451071
  66.3188612  53.7851634  93.8362016  67.1016564  55.0808087  93.8565041
  58.0645641  40.9410627  93.5228211  57.3432227  41.5546594  93.3835684
  58.8538897  41.4768391  93.4444857  68.5072381  52.3870914  95.9730621
  67.5602717  52.2676265  95.9008948  68.8555154  51.4993412  96.0556882
  60.8671955  38.2765053  99.7968863  61.3906356  38.5227350 100.5595172
  60.6484288  39.1085088  99.3772000  56.2639236  40.5468728  87.6639988
  55.9351942  39.6666107  87.4815094  56.6178606  40.4916396  88.5516377
  65.5118814  52.1823630  92.1734973  65.3643777  51.2540338  92.3542543
  66.3372308  52.2043721  91.6892048  59.3781059  40.8341697  88.0315465
  59.7177131  41.3627619  87.3094074  59.8253179  41.1722104  88.8074032
  69.1152936  53.0052189  93.2599846  70.0399484  52.7995050  93.1224297
  68.9468240  52.7568590  94.1689187  62.0724500  39.2178748  97.4818533
  61.7321320  38.4186561  97.8839213  61.3663506  39.5180459  96.9095367
  62.7240971  36.3028061  95.9345856  63.5467041  35.8288539  95.8124747
  62.9679035  37.0818544  96.4344543  61.3649206  39.3316319  86.2308758
  62.0857568  39.7097572  85.7272475  60.7414510  40.0505196  86.3343736
  65.5080329  40.0361468  87.1667090  65.7243943  40.9186106  86.8655919
  65.0274396  39.6447681  86.4372732  60.2479550  42.9947181  93.7437835
  60.1024131  43.3087484  94.6362116  59.7704754  43.6132082  93.1908734
  62.1075933  39.9849729  93.7918725  62.0937502  39.0890823  93.4551022
  62.8248361  39.9920393  94.4257011  63.9602064  40.4187069  95.8371852
  63.7019842  41.3404140  95.8356182  63.4287104  40.0217504  96.5272316
  68.9048253  53.5237857  88.6161937  69.0785130  52.9584279  87.8635790
  69.3977144  54.3238751  88.4341427  54.7225212  45.5352526  96.6825496
  54.1778680  46.3112334  96.8145770  55.6004562  45.8823330  96.5244618
  61.5112829  38.8664109  89.0606295  61.6328740  37.9380756  89.2597182
  61.2214871  38.8802795  88.1484610  64.3804019  36.5519020  92.1973015
  64.4025716  36.6158353  91.2424994  64.7972078  35.7123529  92.3913521
  74.7587644  46.2874279  90.2352237  75.2018790  45.5381605  89.8371360
  73.8814154  46.2784416  89.8525969  55.5091234  44.6622422  99.5755653
  54.7672970  44.8105057 100.1620283  55.1883978  44.9230687  98.7122402
  71.7914848  50.2904326  87.2446166  72.3166172  50.6291599  86.5195486
  71.7037201  49.3551342  87.0609301  63.4534897  54.2038400  99.3736043
  63.7622023  53.9587547 100.2458743  64.2510379  54.4085039  98.8854913
  63.4755509  56.3576310  91.6041420  63.0360499  55.8652688  92.2974276
  64.2263626  55.8149277  91.3633495  55.9547848  52.5487851  91.6066048
  56.7805868  52.2491622  91.2264691  55.6041900  51.7795473  92.0555836
  60.9229381  51.9014319  93.6763721  60.3009390  51.2385024  93.3765949
  61.5934248  51.9275451  92.9937369  54.1556453  50.4674177  92.5654981
  53.3188361  50.0396351  92.3838983  54.1280098  50.6606620  93.5025772
  60.9953909  40.3796107 103.2696227  61.0442064  41.2558230 102.8873997
  61.5376423  39.8373500 102.6967871  71.4808754  50.9237230 102.5497364
  70.6904298  50.9061369 102.0101864  71.2442109  51.4625524 103.3046401
  71.6006629  47.7729696  99.8630093  71.6504634  47.6079704 100.8045616
  71.4920553  46.9056956  99.4727974  60.4842888  50.4518242  87.1522182
  60.6331008  51.1353707  86.4988855  61.2909331  50.4323332  87.6671638
  68.8910392  43.7560625 101.1789400  69.7920254  43.6167089 100.8873397
  68.9658366  43.9215079 102.1187577  63.2253197  41.1327479 100.0242586
  62.3556506  41.4261045  99.7525174  63.4612677  41.7167924 100.7449850
  73.1024826  50.1926638 100.1072114  72.8109634  50.5556619 100.9435575
  72.4896957  49.4793646  99.9285447  74.3020508  47.7579518  92.6274685
  75.1367400  48.1969322  92.7912245  74.4379637  47.2818171  91.8082930
  71.3512014  45.3159253  98.5752172  71.8266136  45.5086899  97.7671024
  70.4277580  45.3718438  98.3295556  58.2395521  46.4783420  88.1583251
  57.9941563  45.5745750  88.3563461  58.4091435  46.4800570  87.2162729
  65.9292231  37.3507096  97.5408006  66.4474175  38.0868123  97.2154495
  65.5747364  37.6571089  98.3754765  57.5091168  42.2111777  85.6569412
  56.8160413  42.2856132  85.0009448  57.2642920  41.4472121  86.1790929
  66.1804825  33.7707379  93.0608903  66.4606579  33.1030568  93.6869329
  66.9655432  33.9636474  92.5483567  70.0513683  42.1925013  96.8080478
  71.0031106  42.2923110  96.8292702  69.8817134  41.4003281  97.3178562
  68.0728063  39.2780596  96.9939879  67.4777995  39.5585609  96.2986368
  67.7877759  39.7674497  97.7656620  72.5301761  45.4131132  95.9222778
  72.4978081  44.4747133  96.1082462  73.1402385  45.4915169  95.1888603
  72.6796250  42.2042176  95.9681061  72.1635298  41.4200632  95.7810990
  73.5636198  41.8760892  96.1327580  70.3406977  35.9483191  91.9276874
  70.1431798  35.6398280  92.8120206  70.9506682  36.6744830  92.0574803
  78.3478311  46.4747139  95.0628814  79.0781699  46.2132427  95.6236518
  77.7385256  45.7375861  95.1030882  76.4293608  44.6155002  95.6603266
  75.7026772  44.4810967  95.0519757  76.0140895  44.9231830  96.4659984
  64.2523785  48.3344931 103.4250639  65.1726794  48.5123531 103.6190685
  64.2173368  47.3900977 103.2730338  53.4705949  43.5283525  92.3503913
  53.1508734  42.6748833  92.0578287  52.9239378  43.7432103  93.1061881
  57.2485857  46.2445966  96.0673420  57.4671867  47.1763074  96.0861454
  57.6611631  45.8853941  96.8528224  64.1690075  36.7514051  88.0549108
  63.3590803  36.4061136  88.4304354  64.8574492  36.4421595  88.6436720
  66.0980623  35.8292098  89.6773405  66.6511662  36.2487552  90.3363428
  66.3350709  34.9027846  89.7196361  62.1213722  41.8179172 105.4576169
  62.0210449  42.7673529 105.3888260  61.9035264  41.4897411 104.5852239
  61.3226794  39.0664097  82.0416846  62.1845958  39.3918995  82.3012663
  61.5077138  38.2795593  81.5289912  53.3394210  47.1486437  94.3197035
  52.6457681  46.7340389  93.8066989  54.0867201  47.1906973  93.7230454
  69.4759430  37.9392623  89.1852069  68.8958099  38.5977427  88.8030122
  69.2095363  37.1169968  88.7739487  67.9262997  37.3397681  91.3873389
  68.4262775  37.4514216  90.5787708  68.5698605  37.0358734  92.0274198
  61.9844992  45.2476311 104.2741230  61.5012074  46.0476671 104.4805119
  62.0705931  45.2584256 103.3208674  55.2530952  47.0804690  92.1963050
  55.2301640  47.1792378  91.2444933  55.5631589  47.9269841  92.5180216
  57.9118330  49.1380845  96.3109664  58.8661583  49.1064788  96.2439596
  57.7130853  48.6771469  97.1259890  58.5017712  47.7081962  98.8780462
  59.3210601  48.2026040  98.9015299  58.7754520  46.7913930  98.8498029
  68.2584308  40.0992714  88.2408417  67.3710163  40.3842364  88.0228612
  68.6738297  39.9386477  87.3935694  71.6098844  40.1239235  91.9562757
  72.3859234  40.6135687  92.2287373  70.8846979  40.5497289  92.4134626
  74.0471403  40.8366854  93.0136697  74.6415894  40.5962590  92.3030006
  74.1197987  40.1173985  93.6410234  56.2668559  54.6800465  93.3279862
  56.1323027  53.9200866  92.7617860  55.8500621  55.4041365  92.8608651
  68.2325332  45.6147250  88.4558708  68.1760533  46.0715801  87.6166340
  68.7853674  44.8537934  88.2781550  72.0430138  41.4036982  89.2808827
  71.7867072  41.0033617  90.1117035  71.4183006  42.1180776  89.1558966
  76.3542476  44.1433055  91.7880118  75.7942034  44.2126244  92.5611681
  75.7485979  43.9674039  91.0679615  59.4237685  55.5769782  93.5398305
  59.3070069  56.5215214  93.4376995  58.6030131  55.2743344  93.9284104
  53.7552626  42.0420095  99.5772659  54.4011490  41.5319049 100.0659884
  53.5469777  42.7788777 100.1516084  66.2806018  49.1100943 105.0764800
  67.1497178  49.2841595 104.7151434  65.8012770  49.9295360 104.9540529
  62.2756237  36.3060140  85.3296555  62.2634907  37.2501980  85.4864826
  63.1679659  36.1230285  85.0356016  60.4492199  56.2298044  96.7554233
  61.3519445  56.2621654  97.0720728  60.2229569  55.2998495  96.7700569
  62.2045801  54.9829030  93.4164312  61.2541432  54.9830892  93.3028684
  62.5078287  54.2361765  92.9000346  66.0908356  32.9002917  89.5842492
  65.3240752  32.3461403  89.7299174  66.5019061  32.9724785  90.4456644
  58.0950117  39.1887712 103.6747673  58.9581579  38.8324517 103.8850998
  57.5215528  38.8501607 104.3623077  77.9398494  60.8189569  94.4810074
  78.5776904  60.6996316  93.7773414  77.8219337  61.7670413  94.5398026
  74.7488200  60.7716997  94.4171599  74.4106712  60.6558062  93.5292134
  75.6177969  60.3708162  94.3972605  70.6075016  62.6252473  90.4068490
  70.0439881  62.5342410  89.6384778  70.4927411  61.8052378  90.8870982
  75.2307983  61.9251849 100.3757804  75.2196624  61.5304647  99.5038308
  75.3928623  61.1917921 100.9691576  68.1539448  64.1203665  93.2452710
  68.9460740  63.7794490  92.8299010  68.3936098  64.2298640  94.1654864
  76.1874575  66.2923441  85.7182955  75.5362555  66.8777521  85.3316969
  76.9818938  66.8229636  85.7777992  70.1130202  63.3812578  86.1170089
  70.8861078  62.8341565  85.9782965  70.4655601  64.2456827  86.3284550
  71.9515245  64.7088960  99.3236988  71.6605111  65.6134591  99.2083655
  72.5872229  64.7505488 100.0381058  72.8771451  62.0865809  95.9138348
  73.4735024  61.8621831  95.1995311  72.9346423  61.3450554  96.5163796
  72.4496480  59.5405244  83.7488539  72.7022001  59.0186766  82.9872002
  71.5121039  59.3771390  83.8515223  77.4939763  58.5441023  91.5563282
  78.2802852  58.1260446  91.2053699  77.7578467  59.4487115  91.7244931
  77.6649840  63.9813873  86.2551939  77.0295673  64.0548499  86.9672844
  77.3347246  64.5707472  85.5771018  82.8948190  58.4816256  92.4596261
  83.6273362  57.9115473  92.6934090  82.1387546  58.0937856  92.9002766
  72.1692769  61.4433350  85.9512914  72.0529027  60.7678254  86.6193998
  72.2795029  60.9565724  85.1345067  74.5124310  60.9043497  89.6559603
  74.1482517  60.3774118  90.3672525  75.3691425  60.5141966  89.4826089
  80.4173610  52.1937830  96.9190869  80.0856935  53.0633241  96.6952084
  79.8219224  51.8774114  97.5984900  74.1529797  55.9333397  84.6520952
  74.3204199  56.8013633  85.0191423  73.9626966  56.0960679  83.7282241
  76.9105130  64.3950376  96.3186782  76.6105853  65.2975415  96.2102589
  76.5656189  64.1282559  97.1707935  70.3617611  60.8464173  92.3523487
  69.4368108  60.7140387  92.5601178  70.6102024  61.6258392  92.8493429
  80.3102273  56.9132916  93.9984219  79.4019151  56.8448325  93.7042980
  80.2589869  57.3904861  94.8266045  74.1319017  58.3891055  85.6367619
  74.0118643  58.8348105  86.4753099  73.4371606  58.7376372  85.0781157
  67.7226422  60.4897446  93.1867276  67.8518803  60.7431925  94.1006687
  67.0423874  61.0825154  92.8671931  71.8925910  71.1594696  89.2857750
  71.8149939  72.1102521  89.3646230  71.2887553  70.8140569  89.9432676
  74.3843139  58.3322562 101.9419117  73.6076473  58.8916482 101.9321981
  75.0233702  58.8179345 102.4633987  82.1763920  55.1149355  95.7762093
  81.5338300  55.4081888  95.1301888  81.6718848  55.0002275  96.5815290
  79.8304084  58.8612528  86.4647953  80.7421940  59.0939914  86.2895650
  79.3213731  59.4449572  85.9023031  72.6389512  61.1408015 101.5037084
  73.3804196  61.6793059 101.2271907  71.9326497  61.7674304 101.6608635
  78.1144851  63.2837156 100.1009245  78.5228207  62.8419566  99.3563878
  77.3922113  62.7089783 100.3543438  74.4675921  58.2209762  97.4742802
  75.3137116  58.6449176  97.6177451  74.4074559  57.5643387  98.1681365
  78.4373666  63.8438346  93.8561534  77.8082528  64.0084060  93.1537602
  78.0499328  64.2579956  94.6272498  82.3162898  64.7792784  91.2105898
  81.6313936  65.1591685  90.6602931  82.4006747  65.3888111  91.9437846
  77.6175367  55.8814131  99.1323976  77.3736298  56.6356191  98.5958251
  77.8935297  56.2599478  99.9671223  79.5713829  62.4252743  97.8101241
  79.7830725  63.0684503  97.1335622  79.5243578  61.5915060  97.3423171
  77.1740058  55.0370564  94.7137813  76.3124537  55.3351817  95.0054551
  77.2002493  55.2540963  93.7818846  73.9901628  63.5812754  91.1211619
  74.4539973  63.8600457  90.3316242  73.7258426  62.6796199  90.9384710
  70.8825709  63.1284236  94.0591382  71.4527066  63.5571504  93.4208867
  71.4733821  62.8466821  94.7575568  72.9270514  59.7035907  87.9301184
  73.6294557  60.1556950  88.3975111  72.5951142  59.0619725  88.5581077
  71.3750875  58.2947663 102.3052394  70.7449536  58.9763944 102.5387790
  71.2686963  58.1830745 101.3605532  66.6695848  57.9619459  93.2318318
  65.8794902  58.2176988  92.7558428  67.1607095  58.7767797  93.3370358
  80.6859657  65.3024698  95.9823599  81.5077101  64.9004886  95.7006280
  80.6822060  65.1992933  96.9339714  68.6210593  58.3264039  90.1901795
  67.8241756  58.4382733  90.7085290  68.3936185  58.6650691  89.3242685
  74.4516261  64.8508742  98.1384309  74.5160693  65.3129149  98.9742481
  73.7427185  64.2206107  98.2666619  64.9533551  58.2149950  95.6633309
  65.2041589  59.0996960  95.9290885  65.4893099  58.0354551  94.8908400
  88.7765650  61.6463447  92.3308570  88.0229359  61.0770845  92.1752575
  88.9113192  61.6126111  93.2779205  74.1664278  66.5176849  88.0063289
  74.0309953  67.3628385  88.4348137  74.7074091  66.7196127  87.2429223
  70.6531618  52.5968429 104.6677645  70.2598564  52.0434628 105.3425289
  71.4697758  52.9079008 105.0584162  67.6193676  64.0352287  88.5791215
  68.1318196  64.8295538  88.7296779  68.2716389  63.3378578  88.5124816
  69.4288561  67.1518044  90.6613968  69.6055189  68.0736008  90.4734952
  70.2245394  66.8376463  91.0908348  73.5699579  54.0126308 102.2597901
  74.3109292  54.6133461 102.1802364  73.8017502  53.2703946 101.7015944
  68.7140917  59.1982675 100.5376131  68.5994432  58.2967933 100.8383230
  67.8585435  59.4446372 100.1860948  70.5519876  68.6696217  96.6624310
  71.1027301  68.5413281  95.8901304  69.7131352  68.9691106  96.3119203
  74.3487047  64.9347345 101.0068541  74.8815384  64.1735633 100.7767849
  73.8201128  64.6420997 101.7492696  77.5156742  50.0407411  96.5362183
  77.1721011  50.9309053  96.4601294  77.8835705  49.8509069  95.6731768
  65.5842593  62.3640942  89.3550785  66.4217815  62.7737950  89.1384493
  65.7620860  61.4240384  89.3250979  77.4807025  60.0316022  85.0434618
  76.9653648  60.8020627  85.2823005  77.2084333  59.3581158  85.6667680
  75.0654136  54.8765723  90.1019856  74.2095732  54.4872573  89.9225495
  75.4781088  54.9557684  89.2419642  76.5953282  52.4112066  94.5011416
  76.0918078  52.3742201  93.6879222  76.8883889  53.3204809  94.5608073
  72.8396168  52.4950796  93.5077598  73.7049165  52.2993605  93.1483487
  72.9073677  52.2661148  94.4346955  82.4541299  62.7848377  86.9787792
  81.6770742  62.4459536  86.5342954  83.1332780  62.7901000  86.3042757
  77.2693328  57.9043114  86.8694399  76.9643463  58.2189264  87.7204542
  78.2223770  57.9824534  86.9121732  75.7139760  64.0633338  88.5187353
  75.1861121  63.3286097  88.2060591  75.2127262  64.8408014  88.2727322
  80.6932606  62.2582358  93.6354400  80.0356280  62.9481620  93.7234528
  81.4973005  62.6478790  93.9788386  70.4458487  54.7253004  90.8793965
  71.0202239  54.5028185  90.1467158  71.0329470  54.7941698  91.6322566
  79.5038065  60.6126731  91.6858341  80.0169946  61.2456723  92.1880051
  80.1539288  60.0127926  91.3201701  72.7481155  51.5994253  89.6069034
  72.0945567  51.2843270  88.9825649  72.7061629  50.9769993  90.3328857
  73.8592360  61.8813548  81.5222326  72.9519422  61.6502801  81.7213475
  74.3563392  61.0851167  81.7096308  76.7660439  70.5911055  84.4419012
  76.0922138  70.8942752  85.0503970  77.1526261  71.3940135  84.0924469
  75.9818895  58.0876186  93.9316682  75.0641457  58.3091133  93.7738370
  76.3979039  58.1622497  93.0728389  76.7653943  59.4867602  89.0619362
  77.5125762  59.9988999  88.7526484  77.0345533  59.1651655  89.9223756
  75.0380593  61.9826143  86.0446316  74.1291813  61.6985176  86.1418786
  75.0675677  62.4025221  85.1849623  80.2699861  65.5932732  89.8137484
  79.8162188  64.7523642  89.8702674  79.6393827  66.2294131  90.1512264
  79.2132780  56.5224718  91.0438151  78.4755537  56.0102105  91.3748394
  79.4659554  56.0825100  90.2321428  78.7132800  67.4309229  90.7487302
  79.0055774  67.9914286  90.0299668  79.2231421  67.7237790  91.5040461
  79.3144408  49.3000970  91.6379921  79.6203284  48.4398334  91.3505836
  80.0397012  49.8918591  91.4378915  65.6068764  59.7031657  90.0261519
  65.4093164  59.1101018  89.3012585  65.0515428  59.3983867  90.7437457
  73.5865487  59.5954763  92.1456112  73.6414097  58.6428600  92.0698588
  72.7756689  59.7514202  92.6297410  74.7356681  63.5234886  83.3834395
  74.2976111  62.8070745  82.9240032  75.4767122  63.7511001  82.8219486
  71.5257847  58.2131823  89.9046491  70.7125713  58.5125994  90.3111683
  72.0216841  57.8187512  90.6220973  73.6766425  68.2089580  91.8380755
  73.6342604  68.4350426  90.9089287  74.5929124  67.9752955  91.9866556
  77.1232059  58.6773648  98.7361384  77.4781447  58.9045121  99.5955850
  77.7704190  59.0092024  98.1138640  82.8529796  61.7992083  89.4410714
  82.7147695  61.9893679  88.5131903  82.4966015  62.5611466  89.8978765
  71.0171922  55.7850179  95.5207726  71.6571301  55.6438938  94.8230689
  70.1849453  55.4984692  95.1446328  82.8799176  63.8668611  94.4521985
  83.3135682  63.7743900  95.3005039  83.5930756  63.8426111  93.8142001
  71.7932226  65.0852609  91.6342718  72.5872824  64.5902929  91.4325293
  71.0823918  64.5570472  91.2710424  76.6127070  67.4670705  95.9855086
  76.6664093  68.0361641  96.7532802  75.7441852  67.6372590  95.6209123
  68.1014989  59.2295691  87.7102471  67.1712578  59.1680146  87.9272433
  68.1972461  58.7071644  86.9139112  68.0200538  55.7550504  90.2980712
  68.2807356  56.6695837  90.1889873  68.8417711  55.2874946  90.4477325
  69.4925464  57.1688261  97.4679537  70.1648517  56.9605623  96.8192186
  68.6655250  56.9710347  97.0284769  83.7414725  63.9092311  96.9854870
  83.9350615  64.8138122  97.2314145  83.6415343  63.4499730  97.8193455
  75.3951036  53.7950202  99.4845198  74.7478951  54.4940151  99.3909674
  76.1652051  54.2286346  99.8521446  75.5715170  61.6330967  97.5442017
  76.5007230  61.7842126  97.3710985  75.1506200  61.7214987  96.6890664
  74.3703502  65.6581631  95.3140555  74.2314588  65.2900415  96.1866493
  73.5818098  66.1729270  95.1424513  74.9651654  70.7590728  86.6566092
  75.1403410  70.2878771  87.4711714  74.2784442  71.3856494  86.8847352
  75.9208717  65.0363234  92.7029393  75.5858550  64.9964004  93.5987043
  75.4212663  64.3707950  92.2299803  69.8952961  60.4430864  98.2281974
  69.7572759  59.7111103  98.8293513  70.8057885  60.3539764  97.9466162
  78.8567909  62.3819268  82.9766453  78.2397079  61.6566096  82.8799505
  78.3884397  63.1428628  82.6333527  72.5235262  60.1550823  97.7165654
  73.2334880  59.5144015  97.6752272  72.4804570  60.4063718  98.6391834
  71.2364196  57.1416041  99.5361293  70.7001553  56.6906779 100.1882889
  70.6480904  57.2761950  98.7931758  69.5312739  73.9080090  93.4305952
  69.7709337  74.5398614  94.1084970  68.6881936  73.5568130  93.7171311
  80.5139448  65.0557760  98.8686213  79.6266226  64.7183682  98.9912611
  81.0837999  64.3240792  99.1054978  62.1668595  61.3881852  92.1929264
  62.8539635  61.0743582  91.6050279  62.0116723  62.2923217  91.9196515
  66.9703317  56.2772049  96.6214288  66.8861506  55.6697718  95.8864698
  66.1486023  56.7681067  96.6223784  74.0440601  69.7159213  95.8347456
  73.9710773  70.5214184  96.3466760  73.6017994  69.9151179  95.0095477
  73.8330381  68.9530983  89.3450277  73.0497903  69.4952663  89.4388502
  74.5323126  69.4704962  89.7444518  77.1427031  54.7625612  91.9884483
  77.6395730  54.0095575  91.6685553  76.3714012  54.7989929  91.4227692
  84.9956788  60.4665978  93.6302774  84.9846664  61.3490693  93.2596707
  84.1274168  60.1137529  93.4357311  76.5039285  69.6146047  97.9905614
  77.2167257  70.2493512  97.9181516  76.0129313  69.7109913  97.1745616
  78.2256812  63.5197299  89.5622906  77.2913090  63.6398762  89.3927610
  78.4033480  62.6169766  89.2982916  73.7262000  56.9042995  91.7156167
  73.3559787  56.3514036  92.4037073  74.2221092  56.3001129  91.1631167
  81.6129363  59.3614619  90.0972940  82.0789815  60.1942610  90.0233243
  82.0636863  58.8959600  90.8018199  71.5551198  67.3640490  98.8111185
  72.2560658  67.9976973  98.9640579  71.0846313  67.7055222  98.0506825
  79.6805594  65.7058440  87.0959092  79.9565438  65.5915035  88.0052966
  78.8110093  65.3075925  87.0571265  79.5846026  51.7295206  94.1363842
  78.6709105  51.9599433  94.3046049  80.0139127  51.8133650  94.9877874
  79.3552484  59.9185098  96.6363736  78.7023934  60.1661005  95.9816188
  79.7332864  59.1049236  96.3026213  76.3159658  69.9544791  90.7391906
  76.4982053  69.1366447  91.2019658  77.1392644  70.1712483  90.3016796
  76.6501823  68.8812976  88.0006954  77.1789590  68.3705431  87.3877116
  76.9130043  68.5655506  88.8652487  75.4040057  60.6604909 103.1229773
  74.7280694  60.5599038 103.7932148  76.2267691  60.5044122 103.5865770
  67.1518916  66.8976845  95.7442288  67.7372353  66.1520533  95.8770192
  66.9543755  67.2080802  96.6278952  70.0057571  69.9328093  90.7604730
  69.3367947  70.4174220  90.2768770  69.8670441  70.1797313  91.6748109
  61.7436571  59.4682445  94.4646731  61.7820670  58.9346036  95.2583849
  61.2376864  58.9417651  93.8457708  74.1462840  71.9671836  97.3587389
  74.6981148  72.1303458  98.1236474  74.4869033  72.5576274  96.6867414
  69.1227333  54.3146986  97.9609273  69.1868660  55.1761817  97.5486671
  69.0594453  53.7020988  97.2281632  68.5979606  56.3870119 101.6082308
  69.2251645  56.0047196 102.2219832  67.7407525  56.1684320 101.9738000
  65.3745149  58.1946548  87.5400662  65.6698590  57.2857226  87.4867716
  64.4733184  58.1734287  87.2181665  77.2831227  69.9153812  94.3451071
  77.1582367  69.1143552  93.8362016  77.9410318  70.4100005  93.8565041
  68.9039396  56.2702544  93.5228211  68.1825981  56.8838512  93.3835684
  69.6932651  56.8060309  93.4444857  79.3466136  67.7162832  95.9730621
  78.3996471  67.5968183  95.9008948  79.6948909  66.8285330  96.0556882
  71.7065709  53.6056971  99.7968863  72.2300111  53.8519267 100.5595172
  71.4878042  54.4377006  99.3772000  67.1032990  55.8760645  87.6639988
  66.7745696  54.9958024  87.4815094  67.4572361  55.8208314  88.5516377
  76.3512569  67.5115548  92.1734973  76.2037531  66.5832255  92.3542543
  77.1766062  67.5335639  91.6892048  70.2174813  56.1633615  88.0315465
  70.5570886  56.6919536  87.3094074  70.6646934  56.5014021  88.8074032
  79.9546691  68.3344107  93.2599846  80.8793238  68.1286968  93.1224297
  79.7861994  68.0860508  94.1689187  72.9118254  54.5470666  97.4818533
  72.5715074  53.7478479  97.8839213  72.2057260  54.8472377  96.9095367
  73.5634726  51.6319978  95.9345856  74.3860795  51.1580456  95.8124747
  73.8072789  52.4110462  96.4344543  72.2042960  54.6608237  86.2308758
  72.9251323  55.0389489  85.7272475  71.5808265  55.3797114  86.3343736
  76.3474083  55.3653386  87.1667090  76.5637698  56.2478024  86.8655919
  75.8668150  54.9739599  86.4372732  71.0873305  58.3239099  93.7437835
  70.9417885  58.6379402  94.6362116  70.6098508  58.9423999  93.1908734
  72.9469688  55.3141647  93.7918725  72.9331256  54.4182740  93.4551022
  73.6642116  55.3212311  94.4257011  74.7995818  55.7478987  95.8371852
  74.5413596  56.6696058  95.8356182  74.2680859  55.3509422  96.5272316
  79.7442007  68.8529774  88.6161937  79.9178885  68.2876197  87.8635790
  80.2370898  69.6530669  88.4341427  65.5618967  60.8644443  96.6825496
  65.0172435  61.6404251  96.8145770  66.4398317  61.2115248  96.5244618
  72.3506583  54.1956027  89.0606295  72.4722495  53.2672673  89.2597182
  72.0608626  54.2094713  88.1484610  75.2197774  51.8810938  92.1973015
  75.2419471  51.9450271  91.2424994  75.6365833  51.0415446  92.3913521
  85.5981398  61.6166197  90.2352237  86.0412544  60.8673522  89.8371360
  84.7207908  61.6076334  89.8525969  80.7317180  68.1696539  85.7158836
  81.4268084  68.7903231  85.9346150  81.0740330  67.3191890  85.9911214
  66.3484989  59.9914340  99.5755653  65.6066725  60.1396975 100.1620283
  66.0277733  60.2522605  98.7122402  82.6308603  65.6196244  87.2446166
  83.1559927  65.9583517  86.5195486  82.5430955  64.6843259  87.0609301
  74.3149263  71.6868227  91.6041420  73.8754254  71.1944606  92.2974276
  75.0657380  71.1441195  91.3633495  66.7941602  67.8779768  91.6066048
  67.6199622  67.5783540  91.2264691  66.4435654  67.1087391  92.0555836
  71.7623136  67.2306237  93.6763721  71.1403145  66.5676942  93.3765949
  72.4328002  67.2567368  92.9937369  64.9950207  65.7966095  92.5654981
  64.1582116  65.3688269  92.3838983  64.9673853  65.9898538  93.5025772
  71.8347663  55.7088025 103.2696227  71.8835818  56.5850147 102.8873997
  72.3770177  55.1665418 102.6967871  71.3236642  65.7810160  87.1522182
  71.4724763  66.4645624  86.4988855  72.1303086  65.7615250  87.6671638
  79.7304146  59.0852542 101.1789400  80.6314009  58.9459007 100.8873397
  79.8052121  59.2506997 102.1187577  74.0646951  56.4619397 100.0242586
  73.1950261  56.7552963  99.7525174  74.3006432  57.0459842 100.7449850
  85.1414263  63.0871435  92.6274685  85.9761154  63.5261240  92.7912245
  85.2773392  62.6110089  91.8082930  82.1905769  60.6451170  98.5752172
  82.6659890  60.8378817  97.7671024  81.2671334  60.7010356  98.3295556
  69.0789275  61.8075337  88.1583251  68.8335317  60.9037667  88.3563461
  69.2485190  61.8092488  87.2162729  76.7685985  52.6799014  97.5408006
  77.2867929  53.4160041  97.2154495  76.4141118  52.9863007  98.3754765
  68.3484923  57.5403695  85.6569412  67.6554168  57.6148050  85.0009448
  68.1036675  56.7764039  86.1790929  77.0198579  49.0999296  93.0608903
  77.3000333  48.4322485  93.6869329  77.8049186  49.2928392  92.5483567
  74.8232048  68.2758290  84.6233929  74.2506015  68.8948477  84.1704401
  75.3964842  68.8257652  85.1573851  80.8907438  57.5216930  96.8080478
  81.8424861  57.6215028  96.8292702  80.7210888  56.7295199  97.3178562
  78.9121817  54.6072514  96.9939879  78.3171749  54.8877526  96.2986368
  78.6271514  55.0966415  97.7656620  78.0429308  68.5595440  85.7542512
  78.9759981  68.4941002  85.9575387  77.9552521  69.3951707  85.2957044
  80.6717324  67.8761311  82.7146459  80.5930956  67.5421174  83.6082217
  81.4926991  68.3683079  82.7137931  83.3695516  60.7423050  95.9222778
  83.3371836  59.8039051  96.1082462  83.9796139  60.8207087  95.1888603
  75.2078846  59.6119103  81.9649982  76.1537951  59.4825311  82.0338400
  74.8293091  58.8733765  82.4419410  83.5190004  57.5334094  95.9681061
  83.0029053  56.7492550  95.7810990  84.4029953  57.2052810  96.1327580
  81.1800731  51.2775109  91.9276874  80.9825552  50.9690197  92.8120206
  81.7900437  52.0036748  92.0574803  89.1872065  61.8039057  95.0628814
  89.9175454  61.5424345  95.6236518  88.5779011  61.0667779  95.1030882
  87.2687363  59.9446919  95.6603266  86.5420526  59.8102884  95.0519757
  86.8534649  60.2523748  96.4659984  64.3099704  58.8575443  92.3503913
  63.9902488  58.0040751  92.0578287  63.7633132  59.0724021  93.1061881
  68.0879612  61.5737884  96.0673420  68.3065621  62.5054992  96.0861454
  68.5005385  61.2145858  96.8528224  75.0083829  52.0805969  88.0549108
  74.1984558  51.7353054  88.4304354  75.6968246  51.7713513  88.6436720
  76.9374378  51.1584016  89.6773405  77.4905416  51.5779469  90.3363428
  77.1744464  50.2319764  89.7196361  72.9607477  57.1471090 105.4576169
  72.8604204  58.0965447 105.3888260  72.7429019  56.8189329 104.5852239
  64.1787964  62.4778354  94.3197035  63.4851435  62.0632307  93.8066989
  64.9260955  62.5198891  93.7230454  80.3153185  53.2684541  89.1852069
  79.7351854  53.9269345  88.8030122  80.0489117  52.4461886  88.7739487
  78.7656751  52.6689599  91.3873389  79.2656529  52.7806133  90.5787708
  79.4092359  52.3650652  92.0274198  72.8238747  60.5768228 104.2741230
  72.3405829  61.3768589 104.4805119  72.9099686  60.5876173 103.3208674
  66.0924707  62.4096608  92.1963050  66.0695395  62.5084295  91.2444933
  66.4025343  63.2561759  92.5180216  68.7512084  64.4672763  96.3109664
  69.7055338  64.4356705  96.2439596  68.5524608  64.0063387  97.1259890
  69.3411467  63.0373879  98.8780462  70.1604356  63.5317958  98.9015299
  69.6148274  62.1205847  98.8498029  79.0978063  55.4284631  88.2408417
  78.2103918  55.7134282  88.0228612  79.5132052  55.2678395  87.3935694
  82.4492599  55.4531152  91.9562757  83.2252989  55.9427605  92.2287373
  81.7240733  55.8789207  92.4134626  84.8865157  56.1658772  93.0136697
  85.4809648  55.9254508  92.3030006  84.9591741  55.4465902  93.6410234
  67.1062313  70.0092383  93.3279862  66.9716781  69.2492784  92.7617860
  66.6894375  70.7333282  92.8608651  78.2421276  65.1929306  82.3356437
  78.9457126  65.3979309  82.9514093  77.5183925  65.7606068  82.6005521
  79.0719086  60.9439167  88.4558708  79.0154288  61.4007719  87.6166340
  79.6247429  60.1829852  88.2781550  82.8823892  56.7328899  89.2808827
  82.6260827  56.3325535  90.1117035  82.2576760  57.4472693  89.1558966
  87.1936230  59.4724973  91.7880118  86.6335788  59.5418162  92.5611681
  86.5879734  59.2965957  91.0679615  70.2631439  70.9061700  93.5398305
  70.1463823  71.8507132  93.4376995  69.4423885  70.6035261  93.9284104
  80.1507974  65.6311835  84.3854897  80.9853578  65.1993034  84.2032372
  79.9892317  65.4593849  85.3131792  79.8053866  62.1343949  85.7511237
  79.7502670  61.9688220  84.8099681  79.1799921  62.8419982  85.9073426
  64.5946381  57.3712013  99.5772659  65.2405244  56.8610967 100.0659884
  64.3863532  58.1080695 100.1516084  73.1149991  51.6352058  85.3296555
  73.1028661  52.5793898  85.4864826  74.0073413  51.4522203  85.0356016
  71.2885953  71.5589962  96.7554233  72.1913200  71.5913572  97.0720728
  71.0623323  70.6290412  96.7700569  73.0439555  70.3120948  93.4164312
  72.0935186  70.3122810  93.3028684  73.3472041  69.5653683  92.9000346
  76.9302111  48.2294834  89.5842492  76.1634507  47.6753321  89.7299174
  77.3412816  48.3016703  90.4456644  68.9343872  54.5179630 103.6747673
  69.7975333  54.1616435 103.8850998  68.3609282  54.1793525 104.3623077
  81.4468771  77.9544391  90.4068490  80.8833636  77.8634328  89.6384778
  81.3321166  77.1344295  90.8870982  87.0268329  81.6215359  85.7182955
  86.3756309  82.2069439  85.3316969  87.8212692  82.1521554  85.7777992
  80.9523957  78.7104496  86.1170089  81.7254833  78.1633483  85.9782965
  81.3049355  79.5748745  86.3284550  83.2890234  74.8697162  83.7488539
  83.5415755  74.3478683  82.9872002  82.3514793  74.7063307  83.8515223
  88.5043595  79.3105791  86.2551939  87.8689428  79.3840417  86.9672844
  88.1741001  79.8999389  85.5771018  83.0086523  76.7725268  85.9512914
  82.8922781  76.0970171  86.6193998  83.1188783  76.2857642  85.1345067
  85.3518064  76.2335415  89.6559603  84.9876271  75.7066036  90.3672525
  86.2085180  75.8433884  89.4826089  84.9923551  71.2625315  84.6520952
  85.1597953  72.1305551  85.0191423  84.8020720  71.4252596  83.7282241
  84.9712772  73.7182972  85.6367619  84.8512397  74.1640023  86.4753099
  84.2765360  74.0668290  85.0781157  78.5620177  75.8189364  93.1867276
  78.6912558  76.0723843  94.1006687  77.8817628  76.4117072  92.8671931
  90.6697838  74.1904445  86.4647953  91.5815694  74.4231832  86.2895650
  90.1607485  74.7741490  85.9023031  83.7664268  75.0327824  87.9301184
  84.4688312  75.4848868  88.3975111  83.4344897  74.3911643  88.5581077
  77.5089602  73.2911377  93.2318318  76.7188656  73.5468906  92.7558428
  78.0000850  74.1059715  93.3370358  79.4604348  73.6555956  90.1901795
  78.6635511  73.7674650  90.7085290  79.2329940  73.9942608  89.3242685
  78.4587430  79.3644205  88.5791215  78.9711951  80.1587455  88.7296779
  79.1110143  78.6670495  88.5124816  76.4236347  77.6932859  89.3550785
  77.2611569  78.1029868  89.1384493  76.6014615  76.7532301  89.3250979
  88.3200779  75.3607940  85.0434618  87.8047403  76.1312545  85.2823005
  88.0478088  74.6873076  85.6667680  85.9047890  70.2057641  90.1019856
  85.0489487  69.8164491  89.9225495  86.3174842  70.2849602  89.2419642
  87.4347037  67.7403984  94.5011416  86.9311832  67.7034119  93.6879222
  87.7277644  68.6496727  94.5608073  83.6789923  67.8242714  93.5077598
  84.5442920  67.6285522  93.1483487  83.7467432  67.5953065  94.4346955
  93.2935053  78.1140295  86.9787792  92.5164496  77.7751454  86.5342954
  93.9726534  78.1192918  86.3042757  88.1087082  73.2335032  86.8694399
  87.8037218  73.5481181  87.7204542  89.0617524  73.3116452  86.9121732
  86.5533514  79.3925255  88.5187353  86.0254876  78.6578015  88.2060591
  86.0521017  80.1699932  88.2727322  81.2852242  70.0544922  90.8793965
  81.8595994  69.8320103  90.1467158  81.8723224  70.1233616  91.6322566
  81.6121829  72.0849383  84.8989850  80.7759141  72.4224069  85.2199125
  81.4726599  71.9498362  83.9616987  83.5874910  66.9286171  89.6069034
  82.9339322  66.6135188  88.9825649  83.5455384  66.3061911  90.3328857
  84.6986114  77.2105466  81.5222326  83.7913176  76.9794719  81.7213475
  85.1957146  76.4143085  81.7096308  87.6054193  85.9202973  84.4419012
  86.9315892  86.2234670  85.0503970  87.9920015  86.7232053  84.0924469
  87.6047698  74.8159520  89.0619362  88.3519517  75.3280917  88.7526484
  87.8739287  74.4943572  89.9223756  85.8774348  77.3118060  86.0446316
  84.9685567  77.0277093  86.1418786  85.9069432  77.7317139  85.1849623
  90.0526535  71.8516636  91.0438151  89.3149292  71.3394022  91.3748394
  90.3053308  71.4117018  90.2321428  90.1538162  64.6292888  91.6379921
  90.4597039  63.7690251  91.3505836  90.8790767  65.2210508  91.4378915
  76.4462518  75.0323575  90.0261519  76.2486918  74.4392935  89.3012585
  75.8909182  74.7275785  90.7437457  84.4259242  74.9246681  92.1456112
  84.4807852  73.9720517  92.0698588  83.6150444  75.0806120  92.6297410
  85.5750436  78.8526804  83.3834395  85.1369866  78.1362663  82.9240032
  86.3160877  79.0802919  82.8219486  82.3651602  73.5423741  89.9046491
  81.5519467  73.8417911  90.3111683  82.8610596  73.1479430  90.6220973
  81.8565677  71.1142096  95.5207726  82.4965056  70.9730855  94.8230689
  81.0243207  70.8276610  95.1446328  78.9408744  74.5587608  87.7102471
  78.0106332  74.4972064  87.9272433  79.0366216  74.0363561  86.9139112
  78.8594293  71.0842421  90.2980712  79.1201110  71.9987755  90.1889873
  79.6811465  70.6166864  90.4477325  89.6961663  77.7111186  82.9766453
  89.0790834  76.9858014  82.8799505  89.2278152  78.4720546  82.6333527
  81.4860209  71.9296610  82.0987757  80.6089675  71.8085411  81.7350003
  81.9617962  71.1382688  81.8466645  73.0062349  76.7173770  92.1929264
  73.6933389  76.4035500  91.6050279  72.8510478  77.6215134  91.9196515
  77.8097071  71.6063966  96.6214288  77.7255260  70.9989636  95.8864698
  76.9879778  72.0972985  96.6223784  87.9820785  70.0917530  91.9884483
  88.4789485  69.3387492  91.6685553  87.2107767  70.1281847  91.4227692
  84.5655754  72.2334913  91.7156167  84.1953542  71.6805953  92.4037073
  85.0614847  71.6293046  91.1631167  72.5830325  74.7974363  94.4646731
  72.6214425  74.2637954  95.2583849  72.0770618  74.2709569  93.8457708
  76.2138903  73.5238465  87.5400662  76.5092344  72.6149144  87.4867716
  75.3126939  73.5026205  87.2181665  79.7433150  71.5994462  93.5228211
  79.0219736  72.2130430  93.3835684  80.5326406  72.1352227  93.4444857
  77.9426745  71.2052563  87.6639988  77.6139451  70.3249942  87.4815094
  78.2966115  71.1500232  88.5516377  81.0568568  71.4925533  88.0315465
  81.3964640  72.0211454  87.3094074  81.5040688  71.8305939  88.8074032
  84.4028480  66.9611896  95.9345856  85.2254550  66.4872374  95.8124747
  84.6466544  67.7402380  96.4344543  83.0436715  69.9900154  86.2308758
  83.7645077  70.3681407  85.7272475  82.4202019  70.7089031  86.3343736
  87.1867838  70.6945303  87.1667090  87.4031452  71.5769941  86.8655919
  86.7061905  70.3031517  86.4372732  83.7863442  70.6433565  93.7918725
  83.7725011  69.7474658  93.4551022  84.5035870  70.6504228  94.4257011
  83.1900338  69.5247945  89.0606295  83.3116249  68.5964591  89.2597182
  82.9002380  69.5386631  88.1484610  86.0591528  67.2102855  92.1973015
  86.0813225  67.2742188  91.2424994  86.4759587  66.3707364  92.3913521
  82.1630397  81.1102078  87.1522182  82.3118517  81.7937542  86.4988855
  82.9696840  81.0907168  87.6671638  79.9183030  77.1367255  88.1583251
  79.6729072  76.2329585  88.3563461  80.0878944  77.1384406  87.2162729
  79.1878677  72.8695613  85.6569412  78.4947922  72.9439968  85.0009448
  78.9430429  72.1055956  86.1790929  87.8592334  64.4291214  93.0608903
  88.1394088  63.7614403  93.6869329  88.6442941  64.6220310  92.5483567
  85.6625802  83.6050208  84.6233929  85.0899770  84.2240395  84.1704401
  86.2358596  84.1549570  85.1573851  91.5111079  83.2053228  82.7146459
  91.4324710  82.8713092  83.6082217  92.3320746  83.6974996  82.7137931
  86.0472601  74.9411021  81.9649982  86.9931706  74.8117229  82.0338400
  85.6686846  74.2025683  82.4419410  92.0194485  66.6067027  91.9276874
  91.8219307  66.2982115  92.8120206  92.6294191  67.3328666  92.0574803
  84.2315518  72.8660997  81.9004867  83.3246973  72.5694110  81.9767581
  84.5091499  72.5690815  81.0339153  75.1493458  74.1867361  92.3503913
  74.8296243  73.3332669  92.0578287  74.6026887  74.4015939  93.1061881
  85.8477584  67.4097887  88.0549108  85.0378312  67.0644972  88.4304354
  86.5362001  67.1005431  88.6436720  87.7768132  66.4875934  89.6773405
  88.3299171  66.9071387  90.3363428  88.0138218  65.5611682  89.7196361
  83.0014303  69.7247932  82.0416846  83.8633467  70.0502831  82.3012663
  83.1864647  68.9379428  81.5289912  75.0181718  77.8070272  94.3197035
  74.3245190  77.3924225  93.8066989  75.7654709  77.8490809  93.7230454
  91.1546939  68.5976459  89.1852069  90.5745608  69.2561263  88.8030122
  90.8882872  67.7753803  88.7739487  89.6050506  67.9981517  91.3873389
  90.1050284  68.1098051  90.5787708  90.2486113  67.6942569  92.0274198
  76.9318461  77.7388526  92.1963050  76.9089149  77.8376213  91.2444933
  77.2419098  78.5853677  92.5180216  89.9371817  70.7576549  88.2408417
  89.0497672  71.0426200  88.0228612  90.3525806  70.5970313  87.3935694
  89.0815031  80.5221224  82.3356437  89.7850881  80.7271226  82.9514093
  88.3577679  81.0897986  82.6005521  89.9112841  76.2731085  88.4558708
  89.8548042  76.7299637  87.6166340  90.4641183  75.5121770  88.2781550
  93.7217647  72.0620817  89.2808827  93.4654581  71.6617453  90.1117035
  93.0970515  72.7764611  89.1558966  90.9901728  80.9603753  84.3854897
  91.8247332  80.5284952  84.2032372  90.8286071  80.7885767  85.3131792
  90.6447620  77.4635866  85.7511237  90.5896424  77.2980138  84.8099681
  90.0193676  78.1711899  85.9073426  83.9543746  66.9643975  85.3296555
  83.9422416  67.9085815  85.4864826  84.8467168  66.7814121  85.0356016
  87.7695865  63.5586752  89.5842492  87.0028261  63.0045239  89.7299174
  88.1806570  63.6308621  90.4456644  92.3253964  87.2588528  82.0987757
  91.4483430  87.1377329  81.7350003  92.8011717  86.4674606  81.8466645
  93.8408057  85.0539850  82.0416846  94.7027221  85.3794748  82.3012663
  94.0258401  84.2671346  81.5289912  43.6693313  -2.6890189  72.4428261
  43.0181292  -2.1036109  72.0562275  44.4637675  -2.1583995  72.5023299
  37.5948940  -5.6001052  72.8415396  38.3679816  -6.1472065  72.7028272
  37.9474339  -4.7356803  73.0529857  45.1468578  -4.9999757  72.9797246
  44.5114411  -4.9265131  73.6918150  44.8165984  -4.4106159  72.3016325
  39.3744647   2.1781066  76.0103056  39.2968677   3.1288891  76.0891537
  38.7706291   1.8326938  76.6677983  41.4720366  -5.4000876  77.8456926
  41.9358711  -5.1213173  77.0561548  41.2077164  -6.3017432  77.6630016
  41.6483016  -2.4636781  74.7308596  41.5128691  -1.6185245  75.1593444
  42.1892829  -2.2617504  73.9674530  35.1012414  -4.9461343  75.3036521
  35.6136934  -4.1518093  75.4542086  35.7535126  -5.6435053  75.2370123
  36.9107298  -1.8295587  77.3859274  37.0873927  -0.9077622  77.1980258
  37.7064132  -2.1437168  77.8153654  43.1958498  -4.9180293  75.2432660
  42.6679859  -5.6527533  74.9305897  42.6946000  -4.1405616  74.9972628
  44.2479177   1.6097425  71.1664319  43.5740875   1.9129121  71.7749277
  44.6344999   2.4126505  70.8169776  47.7518599  -3.3880898  76.5382791
  47.2980926  -4.2289988  76.5947981  47.1212565  -2.7519500  76.8757571
  46.1951538  -1.5504401  77.4732609  46.4874512  -0.9899344  76.7544974
  46.7050158  -1.2575840  78.2285768  42.2175419  -5.4578744  70.1079702
  41.7794849  -6.1742885  69.6485339  42.9585860  -5.2302629  69.5464793
  41.1585163  -0.7724050  78.5626062  41.1161342  -0.5463204  77.6334594
  42.0747862  -1.0060676  78.7111863  39.2750964  -3.8961021  78.3588025
  40.0691562  -4.3910701  78.1570600  38.5642656  -4.4243158  77.9955730
  42.4470392   1.7777097  73.3811398  42.6222147   1.3065140  74.1957021
  41.7603180   2.4042863  73.6092659  43.4027455  -3.9450397  79.4274700
  43.0677288  -3.9849627  80.3232349  42.9031401  -4.6105681  78.9545110
  37.0131477   4.9266460  80.1551258  37.2528075   5.5584984  80.8330277
  36.1700673   4.5754500  80.4416618  41.5259339   0.7345582  82.5592762
  41.4529510   1.5400554  83.0712067  41.0836732   0.9337548  81.7340784
  41.3149118  -0.0282648  76.0695584  40.5316640   0.5139033  76.1633808
  42.0141864   0.4891332  76.4689825  47.1624332  -3.2755190  73.8204399
  47.4384176  -3.3898596  74.7298273  46.2928830  -3.6737706  73.7816572
  43.7978396   0.9731160  77.4637213  43.9800790   0.1552816  77.9264965
  44.6211382   1.1898853  77.0262103  44.1320561  -0.1000654  74.7252261
  44.6608328  -0.6108200  74.1122423  44.3948781  -0.4158124  75.5897794
  37.4876309   0.9514462  77.4850037  36.8186684   1.4360590  77.0014077
  37.3489179   1.1983683  78.3993415  44.7649965   0.9340181  81.0696378
  44.6401105   0.1329921  80.5607323  45.4229056   1.4286375  80.5810347
  46.8284873  -1.2650799  82.6975928  45.8815209  -1.3845447  82.6254254
  47.1767647  -2.1528301  82.7802189  43.8331307  -1.4698082  78.8980280
  43.6856269  -2.3981375  79.0787850  44.6584800  -1.4477992  78.4137355
  47.4365429  -0.6469524  79.9845153  48.3611976  -0.8526662  79.8469604
  47.2680732  -0.8953123  80.8934494  47.2260745  -0.1283856  75.3407244
  47.3997622  -0.6937434  74.5881096  47.7189636   0.6717039  75.1586734
  48.2135917  -0.8117092  72.4404142  48.9086822  -0.1910399  72.6591457
  48.5559067  -1.6621741  72.7156520  41.7968001   2.7054597  78.3286726
  41.3572991   2.2130976  79.0219583  42.5476118   2.1627565  78.0878801
  38.8055380  -3.2003471  73.8767488  38.9543501  -2.5168006  73.2234161
  39.6121824  -3.2198381  74.3916944  36.5608013  -7.1738293  74.8828557
  36.3154055  -8.0775963  75.0808768  36.7303928  -7.1721143  73.9408035
  42.3050786  -0.7055340  71.3479236  41.7324753  -0.0865153  70.8949708
  42.8783579  -0.1555978  71.8819158  45.5248046  -0.4218190  72.4787818
  46.4578719  -0.4872628  72.6820694  45.4371258   0.4138077  72.0202351
  48.1536062  -1.1052320  69.4391766  48.0749694  -1.4392456  70.3327524
  48.9745729  -0.6130552  69.4383238  34.5881051   1.0278752  80.0525169
  34.4535519   0.2679153  79.4863167  34.1713113   1.7519652  79.5853958
  45.7240014  -3.7884324  69.0601744  46.4275864  -3.5834322  69.6759400
  45.0002663  -3.2207562  69.3250828  37.7450177   1.9248069  80.2643611
  37.6282561   2.8693502  80.1622302  36.9242623   1.6221631  80.6529411
  47.6326711  -3.3501795  71.1100204  48.4672315  -3.7820597  70.9277679
  47.4711054  -3.5219781  72.0377099  40.5258293   1.3307318  80.1409618
  39.5753924   1.3309179  80.0273991  40.8290779   0.5840052  79.6245653
  56.2610986   7.1667856  81.2055381  56.8989396   7.0474603  80.5018721
  56.1431829   8.1148700  81.2643333  53.0700693   7.1195284  81.1416906
  52.7319204   7.0036349  80.2537440  53.9390461   6.7186449  81.1217912
  48.9287508   8.9730761  77.1313796  48.3652374   8.8820698  76.3630084
  48.8139903   8.1530665  77.6116289  53.5520476   8.2730136  87.1003111
  53.5409117   7.8782934  86.2283615  53.7141115   7.5396208  87.6936883
  46.4751940  10.4681952  79.9698017  47.2673232  10.1272777  79.5544316
  46.7148591  10.5776927  80.8900170  54.5087067  12.6401728  72.4428261
  53.8575047  13.2255809  72.0562275  55.3031430  13.1707923  72.5023299
  48.4342694   9.7290865  72.8415396  49.2073570   9.1819853  72.7028272
  48.7868093  10.5935115  73.0529857  50.2727737  11.0567248  86.0482295
  49.9817603  11.9612879  85.9328961  50.9084721  11.0983775  86.7626365
  51.1983944   8.4344096  82.6383655  51.7947516   8.2100119  81.9240618
  51.2558915   7.6928842  83.2409103  50.7708972   5.8883532  70.4733846
  51.0234493   5.3665053  69.7117309  49.8333531   5.7249677  70.5760529
  55.8152255   4.8919310  78.2808589  56.6015344   4.4738733  77.9299006
  56.0790959   5.7965402  78.4490237  55.9862332  10.3292160  72.9797246
  55.3508165  10.4026787  73.6918150  55.6559739  10.9185759  72.3016325
  61.2160682   4.8294543  79.1841567  61.9485854   4.2593760  79.4179397
  60.4600038   4.4416144  79.6248073  50.4905261   7.7911637  72.6758221
  50.3741519   7.1156541  73.3439305  50.6007521   7.3044011  71.8590374
  52.8336802   7.2521785  76.3804910  52.4695009   6.7252406  77.0917831
  53.6903918   6.8620254  76.2071395  52.4742289   2.2811684  71.3766258
  52.6416691   3.1491921  71.7436729  52.2839458   2.4438966  70.4527548
  55.2317622  10.7428663  83.0432089  54.9318345  11.6453702  82.9347896
  54.8868681  10.4760846  83.8953242  48.6830103   7.1942460  79.0768793
  47.7580600   7.0618674  79.2846485  48.9314517   7.9736679  79.5738736
  58.6314766   3.2611203  80.7229526  57.7231643   3.1926612  80.4288287
  58.5802362   3.7383148  81.5511352  52.4531510   4.7369342  72.3612925
  52.3331135   5.1826393  73.1998405  51.7584098   5.0854659  71.8026463
  46.0438914   6.8375734  79.9112582  46.1731296   7.0910213  80.8251994
  45.3636366   7.4303442  79.5917237  50.2138402  17.5072984  76.0103056
  50.1362431  18.4580809  76.0891537  49.6100045  17.1618856  76.6677983
  52.7055632   4.6800849  88.6664423  51.9288966   5.2394769  88.6567288
  53.3446195   5.1657632  89.1879293  60.4976412   1.4627642  82.5007400
  59.8550792   1.7560175  81.8547195  59.9931341   1.3480562  83.3060597
  58.1516576   5.2090815  73.1893259  59.0634432   5.4418202  73.0140957
  57.6426223   5.7927859  72.6268338  50.9602004   7.4886302  88.2282390
  51.7016688   8.0271346  87.9517214  50.2538989   8.1152591  88.3853942
  56.4357343   9.6315443  86.8254552  56.8440700   9.1897853  86.0809184
  55.7134605   9.0568070  87.0788745  52.7888414   4.5688050  84.1988109
  53.6349609   4.9927463  84.3422758  52.7287051   3.9121674  84.8926672
  56.7586158  10.1916633  80.5806841  56.1295021  10.3562348  79.8782909
  56.3711820  10.6058243  81.3517805  60.6375390  11.1271071  77.9351204
  59.9526428  11.5069973  77.3848238  60.7219239  11.7366398  78.6683152
  55.9387859   2.2292418  85.8569282  55.6948791   2.9834478  85.3203558
  56.2147789   2.6077766  86.6916529  57.8926322   8.7731030  84.5346548
  58.1043217   9.4162790  83.8580929  57.8456070   7.9393347  84.0668478
  55.4952551   1.3848851  81.4383120  54.6337030   1.6830105  81.7299858
  55.5214985   1.6019250  80.5064153  52.3114120   9.9291042  77.8456926
  52.7752466  10.2078744  77.0561548  52.0470918   9.0274486  77.6630016
  49.2038201   9.4762523  80.7836689  49.7739558   9.9049791  80.1454174
  49.7946313   9.1945108  81.4820875  51.2483006   6.0514194  74.6546491
  51.9507049   6.5035238  75.1220417  50.9163635   5.4098013  75.2826384
  44.9908340   4.3097747  79.9563624  44.2007394   4.5655275  79.4803735
  45.4819587   5.1246084  80.0615665  59.0072150  11.6502986  82.7068905
  59.8289593  11.2483173  82.4251587  59.0034552  11.5471220  83.6585021
  46.9423085   4.6742326  76.9147101  46.1454249   4.7861020  77.4330597
  46.7148678   5.0128978  76.0487992  52.7728753  11.1987029  84.8629616
  52.8373186  11.6607436  85.6987788  52.0639677  10.5684394  84.9911926
  43.2746043   4.5628237  82.3878615  43.5254081   5.4475247  82.6536191
  43.8105591   4.3832839  81.6153707  67.0978143   7.9941734  79.0553877
  66.3441851   7.4249132  78.8997881  67.2325684   7.9604399  80.0024511
  52.4876771  12.8655137  74.7308596  52.3522445  13.7106672  75.1593444
  53.0286583  13.0674414  73.9674530  45.9406168  10.3830575  75.3036521
  46.4530689  11.1773825  75.4542086  46.5928881   9.6856865  75.2370123
  47.7501053  13.4996331  77.3859274  47.9267681  14.4214296  77.1980258
  48.5457886  13.1854750  77.8153654  54.1145247  13.4878703  88.8608938
  53.6709101  12.7015082  88.5429843  54.7762461  13.6757854  88.1952829
  48.8732368  15.0174505  83.3869617  49.4239793  14.8891568  82.6146611
  48.0343844  15.3169394  83.0364510  56.2126485  13.7681503  86.8890340
  56.1944960  14.5890384  86.3970609  57.1346405  13.6435578  87.1140481
  52.6699539  11.2825632  87.7313848  53.2027876  10.5213921  87.5013156
  52.1413620  10.9899284  88.4738002  43.9055085   8.7119229  76.0796092
  44.7430307   9.1216237  75.8629799  44.0833353   7.7718671  76.0496286
  55.8019517   6.3794309  71.7679925  55.2866140   7.1498914  72.0068312
  55.5296825   5.7059446  72.3912986  53.3866628   1.2244010  76.8265163
  52.5308224   0.8350861  76.6470802  53.7993580   1.3035971  75.9664949
  54.9165775  -1.2409646  81.2256723  54.4130570  -1.2779511  80.4124528
  55.2096382  -0.3316904  81.2853380  51.1608661  -1.1570917  80.2322905
  52.0261657  -1.3528108  79.8728794  51.2286169  -1.3860565  81.1592261
  60.7753791   9.1326664  73.7033098  59.9983234   8.7937824  73.2588260
  61.4545272   9.1379287  73.0288063  55.5905820   4.2521402  73.5939706
  55.2855956   4.5667551  74.4449849  56.5436262   4.3302821  73.6367039
  54.0352252  10.4111625  75.2432660  53.5073614   9.6764384  74.9305897
  53.5339755  11.1886301  74.9972628  59.0145098   8.6060645  80.3599706
  58.3568772   9.2959907  80.4479835  59.8185497   8.9957077  80.7033693
  48.7670980   1.0731291  77.6039271  49.3414732   0.8506473  76.8712464
  49.3541962   1.1419986  78.3567873  57.8250557   6.9605018  78.4103648
  58.3382439   7.5935010  78.9125358  58.4751781   6.3606214  78.0447008
  49.0940567   3.1035752  71.6235157  48.2577879   3.4410439  71.9444431
  48.9545336   2.9684732  70.6862294  51.0693647  -2.0527460  76.3314341
  50.4158060  -2.3678443  75.7070956  51.0274121  -2.6751719  77.0574164
  52.1804852   8.2291835  68.2467633  51.2731914   7.9981089  68.4458782
  52.6775884   7.4329454  68.4341614  55.0872931  16.9389342  71.1664319
  54.4134630  17.2421039  71.7749277  55.4738753  17.7418423  70.8169776
  54.3031388   4.4354474  80.6561988  53.3853949   4.6569421  80.4983677
  54.7191531   4.5100784  79.7973696  55.0866435   5.8345889  75.7864669
  55.8338254   6.3467287  75.4771791  55.3558025   5.5129942  76.6469062
  53.3593086   8.3304430  72.7691623  52.4504305   8.0463463  72.8664093
  53.3888169   8.7503509  71.9094930  58.5912353  11.9411020  76.5382791
  58.1374680  11.1001929  76.5947981  57.9606320  12.5772418  76.8757571
  57.5345273   2.8703006  77.7683458  56.7968029   2.3580392  78.0993701
  57.7872046   2.4303387  76.9566735  57.0345292  13.7787516  77.4732609
  57.3268267  14.3392573  76.7544974  57.5443913  14.0716077  78.2285768
  43.9281256   6.0509944  76.7506825  43.7305656   5.4579305  76.0257892
  43.3727920   5.7462154  77.4682764  51.9077980   5.9433051  78.8701418
  51.9626589   4.9906887  78.7943895  51.0969182   6.0992490  79.3542717
  53.0569173   9.8713174  70.1079702  52.6188603   9.1549033  69.6485339
  53.7979614  10.0989289  69.5464793  49.8470340   4.5610110  76.6291797
  49.0338205   4.8604281  77.0356989  50.3429334   4.1665799  77.3466279
  51.9978917  14.5567867  78.5626062  51.9555096  14.7828714  77.6334594
  52.9141616  14.3231242  78.7111863  55.4444551   5.0251935  85.4606691
  55.7993939   5.2523408  86.3201157  56.0916682   5.3570312  84.8383946
  61.1742288   8.1470371  76.1656020  61.0360187   8.3371967  75.2377209
  60.8178507   8.9089754  76.6224071  49.3384414   2.1328466  82.2453032
  49.9783794   1.9917225  81.5475996  48.5061945   1.8462979  81.8691634
  61.2011668  10.2146898  81.1767292  61.6348174  10.1222187  82.0250346
  61.9143249  10.1904398  80.5387308  50.1144718  11.4330896  78.3588025
  50.9085317  10.9381216  78.1570600  49.4036411  10.9048759  77.9955730
  54.9339563  13.8148992  82.7100392  54.9876585  14.3839928  83.4778108
  54.0654344  13.9850877  82.3454429  46.4227482   5.5773978  74.4347777
  45.4925070   5.5158434  74.6517739  46.5184954   5.0549931  73.6384419
  46.3413031   2.1028791  77.0226019  46.6019848   3.0174124  76.9135179
  47.1630203   1.6353233  77.1722632  47.8137956   3.5166548  84.1924844
  48.4861010   3.3083910  83.5437492  46.9867743   3.3188634  83.7530076
  62.0627217  10.2570598  83.7100177  62.2563107  11.1616409  83.9559452
  61.9627836   9.7978017  84.5438762  53.7163528   0.1428489  86.2090504
  53.0691443   0.8418439  86.1154981  54.4864544   0.5764633  86.5766753
  57.1242326  10.4077341  89.2841058  56.9727832  10.1787893  88.3671141
  57.1147006  11.3647943  89.2972403  53.8927662   7.9809254  84.2687324
  54.8219722   8.1320414  84.0956291  53.4718692   8.0693275  83.4135971
  52.6915994  12.0059918  82.0385862  52.5527080  11.6378703  82.9111800
  51.9030590  12.5207558  81.8669820  53.2864146  17.1069015  73.3811398
  53.4615902  16.6357058  74.1957021  52.5996934  17.7334781  73.6092659
  54.2421209  11.3841521  79.4274700  53.9071042  11.3442291  80.3232349
  53.7425155  10.7186237  78.9545110  48.2165453   6.7909151  84.9527281
  48.0785251   6.0589390  85.5538820  49.1270377   6.7018051  84.6711468
  57.1780401   8.7297555  69.7011759  56.5609572   8.0044384  69.6044812
  56.7096889   9.4906916  69.3578833  50.8447754   6.5029110  84.4410960
  51.5547373   5.8622303  84.3997579  50.8017062   6.7542005  85.3637141
  58.8334533  13.4396464  87.3617540  58.7747079  12.7555684  86.6948123
  59.2354051  14.1815454  86.9098166  49.5576688   3.4894328  86.2606600
  49.0214045   3.0385067  86.9128196  48.9693396   3.6240237  85.5177064
  47.8525231  20.2558378  80.1551258  48.0921830  20.8876902  80.8330277
  47.0094428  19.9046418  80.4416618  48.9678947   2.9482980  68.8233063
  48.0908413   2.8271780  68.4595310  49.4436700   2.1569058  68.5711952
  58.8351940  11.4036048  85.5931519  57.9478719  11.0661969  85.7157918
  59.4050491  10.6719079  85.8300285  40.4881087   7.7360139  78.9174571
  41.1752127   7.4221869  78.3295586  40.3329216   8.6401504  78.6441822
  45.2915809   2.6250336  83.3459594  45.2073998   2.0176005  82.6110004
  44.4698516   3.1159354  83.3469091  52.3653093  16.0637500  82.5592762
  52.2923265  16.8692471  83.0712067  51.9230486  16.2629466  81.7340784
  52.1542873  15.3009270  76.0695584  51.3710395  15.8430950  76.1633808
  52.8535618  15.8183250  76.4689825  55.4639523   1.1103899  78.7129789
  55.9608223   0.3573862  78.3930860  54.6926505   1.1468216  78.1472999
  63.3169280   6.8144265  80.3548081  63.3059157   7.6968980  79.9842014
  62.4486660   6.4615816  80.1602618  54.8251777  15.9624334  84.7150921
  55.5379749  16.5971799  84.6426823  54.3341806  16.0588200  83.8990923
  56.5469304   9.8675587  76.2868213  55.6125583   9.9877049  76.1172917
  56.7245972   8.9648053  76.0228223  52.0474492   3.2521282  78.4401474
  51.6772279   2.6992323  79.1282380  52.5433584   2.6479416  77.8876474
  59.9341855   5.7092906  76.8218247  60.4002307   6.5420898  76.7478550
  60.3849356   5.2437888  77.5263505  49.8763690  13.7118777  85.5356492
  50.5773150  14.3455260  85.6885886  49.4058805  14.0533509  84.7752131
  58.0018086  12.0536727  73.8204399  58.2777930  11.9393322  74.7298273
  57.1322585  11.6554212  73.7816572  57.6764976   6.2663385  83.3609042
  57.0236427   6.5139292  82.7061495  58.0545356   5.4527523  83.0271520
  54.6372150  16.3023078  77.4637213  54.8194545  15.4844734  77.9264965
  55.4605136  16.5190770  77.0262103  54.9714316  15.2291263  74.7252261
  55.5002082  14.7183718  74.1122423  55.2342535  14.9133793  75.5897794
  53.7252549   7.0083196  89.8475079  53.0493186   6.9077325  90.5177455
  54.5480183   6.8522410  90.3111077  45.4731408  13.2455133  82.4687595
  46.0584845  12.4998820  82.6015499  45.2756247  13.5559089  83.3524258
  48.3270064  16.2806380  77.4850037  47.6580439  16.7652508  77.0014077
  48.1882933  16.5275600  78.3993415  40.0649063   5.8160733  81.1892038
  40.1033163   5.2824323  81.9829156  39.5589356   5.2895938  80.5703015
  47.4439826   0.6625273  84.6854580  47.5081152   1.5240104  84.2731978
  47.3806946   0.0499275  83.9526939  57.3186207  13.1411381  89.9381350
  57.8626111  13.7541339  89.4436305  56.7373051  13.6990959  90.4548363
  43.6957641   4.5424835  74.2645969  43.9911082   3.6335513  74.2113023
  42.7945677   4.5212574  73.9426971  55.6043720  16.2632099  81.0696378
  55.4794859  15.4621839  80.5607323  56.2622811  16.7578292  80.5810347
  47.2251888   2.6180831  80.2473518  46.5038474   3.2316799  80.1080991
  48.0145144   3.1538596  80.1690164  57.6678628  14.0641119  82.6975928
  56.7208963  13.9446470  82.6254254  58.0161401  13.1763617  82.7802189
  45.4245482   2.2238933  74.3885294  45.0958189   1.3436311  74.2060400
  45.7784853   2.1686601  75.2761684  54.6725061  13.8593835  78.8980280
  54.5250024  12.9310543  79.0787850  55.4978555  13.8813926  78.4137355
  48.5387306   2.5111902  74.7560772  48.8783378   3.0397824  74.0339380
  48.9859426   2.8492308  75.5319338  58.2759183  14.6822394  79.9845153
  59.2005731  14.4765255  79.8469604  58.1074486  14.4338795  80.8934494
  51.2330746   0.8948953  84.2063840  50.8927567   0.0956766  84.6084520
  50.5269753   1.1950664  83.6340673  51.8847218  -2.0201735  82.6591163
  52.7073287  -2.4941256  82.5370053  52.1285282  -1.2411251  83.1589849
  50.5255453   1.0086524  72.9554065  51.2463815   1.3867777  72.4517782
  49.9020757   1.7275401  73.0589043  54.6686576   1.7131673  73.8912397
  54.8850190   2.5956311  73.5901225  54.1880643   1.3217886  73.1618039
  49.4085797   4.6717386  80.4683142  49.2630378   4.9857689  81.3607423
  48.9311001   5.2902286  79.9154040  51.2682180   1.6619934  80.5164031
  51.2543749   0.7661027  80.1796329  51.9854608   1.6690598  81.1502317
  53.1208311   2.0957274  82.5617159  52.8626088   3.0174345  82.5601489
  52.5893351   1.6987709  83.2517623  58.0654499  15.2008061  75.3407244
  58.2391377  14.6354484  74.5881096  58.5583391  16.0008956  75.1586734
  43.8831459   7.2122731  83.4070803  43.3384927   7.9882538  83.5391077
  44.7610809   7.5593535  83.2489924  50.6719076   0.5434314  75.7851601
  50.7934987  -0.3849039  75.9842489  50.3821118   0.5573000  74.8729917
  63.9193890   7.9644484  76.9597544  64.3625036   7.2151810  76.5616667
  63.0420401   7.9554621  76.5771276  59.0529672  14.5174826  72.4404142
  59.7480576  15.1381519  72.6591457  59.3952822  13.6670177  72.7156520
  44.6697481   6.3392627  86.3000960  43.9279217   6.4875262  86.8865590
  44.3490225   6.6000892  85.4367709  60.9521095  11.9674531  73.9691473
  61.4772419  12.3061804  73.2440793  60.8643447  11.0321547  73.7854608
  52.6141144  15.8808605  86.0981350  52.9228270  15.6357752  86.9704049
  53.4116626  16.0855243  85.6100220  52.6361756  18.0346515  78.3286726
  52.1966746  17.5422893  79.0219583  53.3869873  17.4919482  78.0878801
  45.1154095  14.2258056  78.3311354  45.9412115  13.9261827  77.9509998
  44.7648147  13.4565678  78.7801143  50.0835628  13.5784524  80.4009028
  49.4615637  12.9155229  80.1011256  50.7540495  13.6045656  79.7182676
  43.3162700  12.1444382  79.2900288  42.4794608  11.7166556  79.1084289
  43.2886345  12.3376825  80.2271079  60.6415001  12.6007435  89.2742671
  59.8510545  12.5831574  88.7347170  60.4048356  13.1395729  90.0291708
  60.7612876   9.4499901  86.5875400  60.8110881   9.2849909  87.5290922
  60.6526799   8.5827160  86.1973280  49.6449135  12.1288447  73.8767488
  49.7937255  12.8123911  73.2234161  50.4515578  12.1093537  74.3916944
  58.0516638   5.4330829  87.9034706  58.9526501   5.2937294  87.6118704
  58.1264613   5.5985284  88.8432884  52.3859444   2.8097684  86.7487893
  51.5162753   3.1031250  86.4770481  52.6218924   3.3938129  87.4695156
  62.2631073  11.8696843  86.8317421  61.9715881  12.2326823  87.6680882
  61.6503204  11.1563851  86.6530753  63.4626755   9.4349723  79.3519991
  64.2973647   9.8739527  79.5157552  63.5985884   8.9588376  78.5328237
  60.5118261   6.9929458  85.2997479  60.9872383   7.1857104  84.4916330
  59.5883826   7.0488643  85.0540863  47.4001768   8.1553625  74.8828557
  47.1547810   7.2515955  75.0808768  47.5697682   8.1570775  73.9408035
  55.0898478  -0.9722699  84.2653313  55.6080421  -0.2361672  83.9399802
  54.7353610  -0.6658706  85.1000072  46.6697415   3.8881982  72.3814719
  45.9766660   3.9626337  71.7254755  46.4249167   3.1242326  72.9036236
  53.1444540  14.6236578  71.3479236  52.5718507  15.2426765  70.8949708
  53.7177334  15.1735939  71.8819158  59.2119930   3.8695218  83.5325785
  60.1637353   3.9693315  83.5538009  59.0423381   3.0773486  84.0423869
  57.2334310   0.9550801  83.7185186  56.6384242   1.2355814  83.0231674
  56.9484006   1.4444702  84.4901927  56.3641800  14.9073728  72.4787818
  57.2972473  14.8419289  72.6820694  56.2765013  15.7429995  72.0202351
  58.9929817  14.2239598  69.4391766  58.9143448  13.8899462  70.3327524
  59.8139483  14.7161366  69.4383238  61.6908008   7.0901337  82.6468084
  61.6584328   6.1517338  82.8327768  62.3008632   7.1685374  81.9133909
  53.5291339   5.9597390  68.6895288  54.4750443   5.8303598  68.7583706
  53.1505584   5.2212052  69.1664717  61.8402496   3.8812381  82.6926368
  61.3241545   3.0970837  82.5056296  62.7242445   3.5531097  82.8572887
  67.5084558   8.1517344  81.7874121  68.2387946   7.8902632  82.3481824
  66.8991503   7.4146066  81.8276189  65.5899855   6.2925207  82.3848572
  64.8633018   6.1581172  81.7765064  65.1747142   6.6002035  83.1905290
  53.4130031  10.0115136  90.1495945  54.3333041  10.1893735  90.3435992
  53.3779614   9.0671182  89.9975645  51.7134256   3.8847367  68.6250174
  50.8065711   3.5880479  68.7012887  51.9910237   3.5877185  67.7584460
  42.6312196   5.2053730  79.0749220  42.3114981   4.3519038  78.7823594
  42.0845624   5.4202308  79.8307187  46.4092104   7.9216171  82.7918727
  46.6278114   8.8533279  82.8106760  46.8217878   7.5624145  83.5773530
  53.3296322  -1.5715744  74.7794415  52.5197050  -1.9168659  75.1549661
  54.0180739  -1.8808200  75.3682026  50.4833041   0.7434302  68.7662153
  51.3452205   1.0689200  69.0257970  50.6683385  -0.0434202  68.2535219
  42.5000456   8.8256642  81.0442342  41.8063928   8.4110594  80.5312296
  43.2473447   8.8677178  80.4475760  44.4137199   8.7574895  78.9208356
  44.3907887   8.8562583  77.9690240  44.7237835   9.6040046  79.2425523
  47.0724577  10.8151050  83.0354971  48.0267830  10.7834993  82.9684902
  46.8737100  10.3541674  83.8505197  47.6623959   9.3852166  85.6025769
  48.4816848   9.8796245  85.6260606  47.9360767   8.4684135  85.5743336
  57.4190555   1.7762919  74.9653724  56.5316410   2.0612569  74.7473919
  57.8344544   1.6156682  74.1181001  60.7705091   1.8009440  78.6808063
  61.5465481   2.2905892  78.9532680  60.0453225   2.2267494  79.1379933
  63.2077650   2.5137059  79.7382004  63.8022141   2.2732795  79.0275312
  63.2804233   1.7944190  80.3655540  45.4274805  16.3570670  80.0525169
  45.2929273  15.5971071  79.4863167  45.0106868  17.0811570  79.5853958
  56.5633768  11.5407593  69.0601744  57.2669619  11.7457596  69.6759400
  55.8396417  12.1084355  69.3250828  57.3931579   7.2917455  75.1804014
  57.3366780   7.7486006  74.3411647  57.9459921   6.5308139  75.0026857
  61.2036385   3.0807187  76.0054134  60.9473319   2.6803822  76.8362341
  60.5789253   3.7950980  75.8804273  65.5148723   5.8203260  78.5125425
  64.9548280   5.8896449  79.2856987  64.9092226   5.6444244  77.7924921
  48.5843931  17.2539987  80.2643611  48.4676315  18.1985419  80.1622302
  47.7636378  16.9513548  80.6529411  58.4720466  11.9790123  71.1100204
  59.3066070  11.5471321  70.9277679  58.3104809  11.8072136  72.0377099
  58.1266358   8.4822236  72.4756543  58.0715162   8.3166507  71.5344988
  57.5012413   9.1898269  72.6318733  55.4412265  10.7871148  91.8010106
  56.3103425  10.9611800  91.4396741  54.9619017  11.6065565  91.6785836
  51.4362484  -2.0169655  72.0541862  51.4241153  -1.0727815  72.2110133
  52.3285905  -2.1999510  71.7601323  49.6098445  17.9068249  83.4799540
  50.5125692  17.9391859  83.7966035  49.3835816  16.9768700  83.4945876
  51.3652047  16.6599235  80.1409618  50.4147678  16.6601097  80.0273991
  51.6684534  15.9131970  79.6245653  67.1004741  22.4959774  81.2055381
  67.7383151  22.3766521  80.5018721  66.9825584  23.4440618  81.2643333
  63.9094447  22.4487202  81.1416906  63.5712959  22.3328267  80.2537440
  64.7784215  22.0478367  81.1217912  59.7681263  24.3022678  77.1313796
  59.2046128  24.2112615  76.3630084  59.6533658  23.4822583  77.6116289
  64.3914230  23.6022054  87.1003111  64.3802871  23.2074852  86.2283615
  64.5534870  22.8688126  87.6936883  57.3145695  25.7973870  79.9698017
  58.1066987  25.4564694  79.5544316  57.5542345  25.9068845  80.8900170
  65.3480822  27.9693646  72.4428261  64.6968801  28.5547726  72.0562275
  66.1425184  28.4999841  72.5023299  59.2736449  25.0582783  72.8415396
  60.0467325  24.5111770  72.7028272  59.6261848  25.9227032  73.0529857
  61.1121491  26.3859165  86.0482295  60.8211357  27.2904796  85.9328961
  61.7478476  26.4275693  86.7626365  62.0377698  23.7636014  82.6383655
  62.6341270  23.5392036  81.9240618  62.0952670  23.0220759  83.2409103
  61.6102727  21.2175449  70.4733846  61.8628247  20.6956970  69.7117309
  60.6727286  21.0541595  70.5760529  66.6546009  20.2211228  78.2808589
  67.4409099  19.8030651  77.9299006  66.9184714  21.1257320  78.4490237
  66.8256087  25.6584078  72.9797246  66.1901920  25.7318704  73.6918150
  66.4953493  26.2477677  72.3016325  72.0554437  20.1586461  79.1841567
  72.7879609  19.5885678  79.4179397  71.2993792  19.7708061  79.6248073
  61.3299015  23.1203555  72.6758221  61.2135273  22.4448459  73.3439305
  61.4401275  22.6335929  71.8590374  63.6730556  22.5813702  76.3804910
  63.3088764  22.0544323  77.0917831  64.5297672  22.1912171  76.2071395
  69.5779857  13.8708035  83.6436176  69.2463182  14.7403446  83.4197391
  68.9825470  13.5544319  84.3230206  63.3136043  17.6103602  71.3766258
  63.4810446  18.4783838  71.7436729  63.1233212  17.7730884  70.4527548
  66.0711376  26.0720581  83.0432089  65.7712100  26.9745620  82.9347896
  65.7262436  25.8052764  83.8953242  59.5223858  22.5234378  79.0768793
  58.5974354  22.3910592  79.2846485  59.7708271  23.3028597  79.5738736
  69.4708520  18.5903121  80.7229526  68.5625398  18.5218529  80.4288287
  69.4196116  19.0675066  81.5511352  63.2925264  20.0661259  72.3612925
  63.1724889  20.5118310  73.1998405  62.5977853  20.4146577  71.8026463
  56.8832669  22.1667651  79.9112582  57.0125050  22.4202130  80.8251994
  56.2030120  22.7595359  79.5917237  61.0532156  32.8364901  76.0103056
  60.9756186  33.7872726  76.0891537  60.4493800  32.4910774  76.6677983
  63.5449386  20.0092767  88.6664423  62.7682720  20.5686687  88.6567288
  64.1839949  20.4949550  89.1879293  71.3370167  16.7919559  82.5007400
  70.6944547  17.0852093  81.8547195  70.8325095  16.6772480  83.3060597
  68.9910330  20.5382733  73.1893259  69.9028186  20.7710119  73.0140957
  68.4819977  21.1219777  72.6268338  67.2751098  24.9607360  86.8254552
  67.6834454  24.5189771  86.0809184  66.5528359  24.3859988  87.0788745
  63.6282168  19.8979967  84.1988109  64.4743363  20.3219381  84.3422758
  63.5680806  19.2413592  84.8926672  67.5979913  25.5208551  80.5806841
  66.9688775  25.6854265  79.8782909  67.2105575  25.9350161  81.3517805
  71.4769145  26.4562989  77.9351204  70.7920183  26.8361890  77.3848238
  71.5612994  27.0658316  78.6683152  66.7781613  17.5584336  85.8569282
  66.5342545  18.3126396  85.3203558  67.0541544  17.9369683  86.6916529
  68.7320076  24.1022948  84.5346548  68.9436971  24.7454708  83.8580929
  68.6849824  23.2685265  84.0668478  66.3346305  16.7140769  81.4383120
  65.4730784  17.0122022  81.7299858  66.3608740  16.9311168  80.5064153
  63.1507875  25.2582959  77.8456926  63.6146220  25.5370662  77.0561548
  62.8864673  24.3566404  77.6630016  60.0431956  24.8054441  80.7836689
  60.6133313  25.2341709  80.1454174  60.6340067  24.5237025  81.4820875
  62.0876761  21.3806112  74.6546491  62.7900804  21.8327155  75.1220417
  61.7557389  20.7389930  75.2826384  60.5357122  19.9717868  89.0297700
  59.9055783  20.6534149  89.2633097  60.4293210  19.8600950  88.0850839
  55.8302095  19.6389664  79.9563624  55.0401149  19.8947193  79.4803735
  56.3213342  20.4538002  80.0615665  69.8465904  26.9794903  82.7068905
  70.6683348  26.5775091  82.4251587  69.8428307  26.8763138  83.6585021
  57.7816840  20.0034243  76.9147101  56.9848003  20.1152938  77.4330597
  57.5542432  20.3420896  76.0487992  63.6122508  26.5278947  84.8629616
  63.6766940  26.9899354  85.6987788  62.9033431  25.8976312  84.9911926
  54.1139798  19.8920155  82.3878615  54.3647836  20.7767165  82.6536191
  54.6499346  19.7124756  81.6153707  77.9371897  23.3233652  79.0553877
  77.1835606  22.7541050  78.8997881  78.0719438  23.2896316  80.0024511
  63.3270525  28.1947054  74.7308596  63.1916200  29.0398590  75.1593444
  63.8680338  28.3966332  73.9674530  59.8137865  14.2738634  91.3922951
  59.4204810  13.7204833  92.0670596  60.6304005  14.5849213  91.7829469
  56.7799923  25.7122492  75.3036521  57.2924443  26.5065742  75.4542086
  57.4322635  25.0148783  75.2370123  58.5894807  28.8288248  77.3859274
  58.7661436  29.7506213  77.1980258  59.3851641  28.5146668  77.8153654
  62.7305826  15.6896513  88.9843208  63.4715539  16.2903666  88.9047670
  62.9623749  14.9474151  88.4261251  57.8747164  20.8752880  87.2621438
  57.7600679  19.9738138  87.5628537  57.0191682  21.1216577  86.9106254
  64.9539002  28.8170621  88.8608938  64.5102856  28.0306999  88.5429843
  65.6156215  29.0049771  88.1952829  59.7126123  30.3466422  83.3869617
  60.2633548  30.2183486  82.6146611  58.8737599  30.6461311  83.0364510
  67.0520240  29.0973421  86.8890340  67.0338715  29.9182302  86.3970609
  67.9740160  28.9727496  87.1140481  63.5093294  26.6117550  87.7313848
  64.0421631  25.8505838  87.5013156  62.9807375  26.3191202  88.4738002
  66.6762989  11.7177616  83.2607490  66.3327258  12.6079258  83.1846600
  67.0441951  11.5279274  82.3977075  54.7448839  24.0411147  76.0796092
  55.5824061  24.4508155  75.8629799  54.9227107  23.1010589  76.0496286
  64.2260383  16.5535928  76.8265163  63.3701979  16.1642778  76.6470802
  64.6387334  16.6327889  75.9664949  65.7559529  14.0882271  81.2256723
  65.2524325  14.0512406  80.4124528  66.0490136  14.9975014  81.2853380
  62.0002415  14.1721001  80.2322905  62.8655412  13.9763810  79.8728794
  62.0679924  13.9431353  81.1592261  71.6147546  24.4618582  73.7033098
  70.8376988  24.1229741  73.2588260  72.2939027  24.4671205  73.0288063
  66.4299575  19.5813319  73.5939706  66.1249710  19.8959468  74.4449849
  67.3830017  19.6594739  73.6367039  64.8746006  25.7403543  75.2432660
  64.3467368  25.0056302  74.9305897  64.3733509  26.5178219  74.9972628
  69.8538853  23.9352563  80.3599706  69.1962527  24.6251824  80.4479835
  70.6579252  24.3248995  80.7033693  59.6064734  16.4023209  77.6039271
  60.1808486  16.1798390  76.8712464  60.1935717  16.4711903  78.3567873
  68.6644311  22.2896936  78.4103648  69.1776193  22.9226928  78.9125358
  69.3145535  21.6898131  78.0447008  59.9334321  18.4327670  71.6235157
  59.0971633  18.7702356  71.9444431  59.7939091  18.2976650  70.6862294
  61.9087402  13.2764458  76.3314341  61.2551814  12.9613475  75.7070956
  61.8667876  12.6540198  77.0574164  63.0198607  23.5583753  68.2467633
  62.1125668  23.3273006  68.4458782  63.5169639  22.7621372  68.4341614
  65.1425142  19.7646391  80.6561988  64.2247704  19.9861338  80.4983677
  65.5585286  19.8392702  79.7973696  65.9260190  21.1637807  75.7864669
  66.6732009  21.6759204  75.4771791  66.1951779  20.8421860  76.6469062
  64.1986840  23.6596348  72.7691623  63.2898059  23.3755381  72.8664093
  64.2281924  24.0795426  71.9094930  69.4306108  27.2702937  76.5382791
  68.9768435  26.4293847  76.5947981  68.8000074  27.9064336  76.8757571
  68.3739027  18.1994923  77.7683458  67.6361784  17.6872309  78.0993701
  68.6265801  17.7595305  76.9566735  67.8739047  29.1079434  77.4732609
  68.1662021  29.6684491  76.7544974  68.3837667  29.4007995  78.2285768
  68.4750654  10.9771175  78.3625227  68.7809531  10.1168539  78.0751142
  69.2003259  11.5688795  78.1624221  54.7675010  21.3801862  76.7506825
  54.5699410  20.7871223  76.0257892  54.2121674  21.0754072  77.4682764
  62.7471734  21.2724968  78.8701418  62.8020344  20.3198805  78.7943895
  61.9362936  21.4284407  79.3542717  63.8962928  25.2005091  70.1079702
  63.4582358  24.4840950  69.6485339  64.6373369  25.4281206  69.5464793
  60.6864094  19.8902028  76.6291797  59.8731960  20.1896199  77.0356989
  61.1823088  19.4957717  77.3466279  62.8372672  29.8859785  78.5626062
  62.7948851  30.1120631  77.6334594  63.7535371  29.6523160  78.7111863
  66.2838306  20.3543853  85.4606691  66.6387693  20.5815326  86.3201157
  66.9310437  20.6862229  84.8383946  72.0136043  23.4762288  76.1656020
  71.8753941  23.6663884  75.2377209  71.6572262  24.2381671  76.6224071
  60.1778169  17.4620384  82.2453032  60.8177548  17.3209143  81.5475996
  59.3455699  17.1754897  81.8691634  72.0405422  25.5438815  81.1767292
  72.4741929  25.4514105  82.0250346  72.7537003  25.5196316  80.5387308
  60.9538473  26.7622814  78.3588025  61.7479071  26.2673134  78.1570600
  60.2430165  26.2340677  77.9955730  65.7733317  29.1440910  82.7100392
  65.8270339  29.7131846  83.4778108  64.9048099  29.3142795  82.3454429
  57.2621236  20.9065896  74.4347777  56.3318824  20.8450351  74.6517739
  57.3578708  20.3841848  73.6384419  57.1806785  17.4320709  77.0226019
  57.4413603  18.3466042  76.9135179  58.0023958  16.9645151  77.1722632
  58.6531711  18.8458466  84.1924844  59.3254764  18.6375828  83.5437492
  57.8261497  18.6480552  83.7530076  72.9020972  25.5862516  83.7100177
  73.0956862  26.4908327  83.9559452  72.8021590  25.1269935  84.5438762
  64.5557283  15.4720407  86.2090504  63.9085198  16.1710356  86.1154981
  65.3258298  15.9056551  86.5766753  67.9636081  25.7369259  89.2841058
  67.8121587  25.5079811  88.3671141  67.9540760  26.6939860  89.2972403
  64.7321417  23.3101172  84.2687324  65.6613477  23.4612331  84.0956291
  64.3112447  23.3985192  83.4135971  63.5309749  27.3351836  82.0385862
  63.3920834  26.9670620  82.9111800  62.7424345  27.8499475  81.8669820
  64.1257901  32.4360932  73.3811398  64.3009656  31.9648976  74.1957021
  63.4390689  33.0626699  73.6092659  65.0814964  26.7133439  79.4274700
  64.7464796  26.6734209  80.3232349  64.5818910  26.0478155  78.9545110
  59.0559208  22.1201069  84.9527281  58.9179006  21.3881308  85.5538820
  59.9664131  22.0309969  84.6711468  68.0174156  24.0589473  69.7011759
  67.4003326  23.3336301  69.6044812  67.5490644  24.8198833  69.3578833
  61.6841509  21.8321028  84.4410960  62.3941127  21.1914220  84.3997579
  61.6410817  22.0833923  85.3637141  69.6728287  28.7688381  87.3617540
  69.6140833  28.0847602  86.6948123  70.0747806  29.5107371  86.9098166
  60.3970442  18.8186246  86.2606600  59.8607799  18.3676984  86.9128196
  59.8087151  18.9532155  85.5177064  58.6918986  35.5850295  80.1551258
  58.9315584  36.2168819  80.8330277  57.8488182  35.2338335  80.4416618
  59.8072701  18.2774897  68.8233063  58.9302168  18.1563698  68.4595310
  60.2830455  17.4860976  68.5711952  69.6745694  26.7327965  85.5931519
  68.7872473  26.3953887  85.7157918  70.2444246  26.0010997  85.8300285
  51.3274842  23.0652057  78.9174571  52.0145881  22.7513787  78.3295586
  51.1722970  23.9693422  78.6441822  56.1309564  17.9542254  83.3459594
  56.0467752  17.3467923  82.6110004  55.3092270  18.4451272  83.3469091
  63.2046848  31.3929418  82.5592762  63.1317019  32.1984389  83.0712067
  62.7624241  31.5921383  81.7340784  62.9936627  30.6301188  76.0695584
  62.2104149  31.1722868  76.1633808  63.6929373  31.1475167  76.4689825
  66.3033278  16.4395817  78.7129789  66.8001977  15.6865779  78.3930860
  65.5320259  16.4760134  78.1472999  74.1563035  22.1436183  80.3548081
  74.1452911  23.0260898  79.9842014  73.2880414  21.7907734  80.1602618
  65.6645531  31.2916252  84.7150921  66.3773504  31.9263717  84.6426823
  65.1735560  31.3880118  83.8990923  67.3863058  25.1967504  76.2868213
  66.4519337  25.3168967  76.1172917  67.5639727  24.2939971  76.0228223
  62.8868246  18.5813200  78.4401474  62.5166034  18.0284241  79.1282380
  63.3827339  17.9771334  77.8876474  70.7735610  21.0384824  76.8218247
  71.2396062  21.8712815  76.7478550  71.2243110  20.5729805  77.5263505
  60.7157445  29.0410695  85.5356492  61.4166904  29.6747178  85.6885886
  60.2452560  29.3825427  84.7752131  68.8411841  27.3828645  73.8204399
  69.1171685  27.2685240  74.7298273  67.9716339  26.9846130  73.7816572
  68.7452272  13.4065411  80.8609148  67.8315352  13.6369637  81.0291355
  69.1745374  13.4903855  81.7123181  68.5158731  21.5955303  83.3609042
  67.8630181  21.8431210  82.7061495  68.8939111  20.7819441  83.0271520
  65.4765905  31.6314996  77.4637213  65.6588299  30.8136652  77.9264965
  66.2998891  31.8482688  77.0262103  65.8108070  30.5583181  74.7252261
  66.3395837  30.0475636  74.1122423  66.0736290  30.2425711  75.5897794
  64.5646304  22.3375114  89.8475079  63.8886941  22.2369243  90.5177455
  65.3873938  22.1814327  90.3111077  56.3125163  28.5747050  82.4687595
  56.8978600  27.8290738  82.6015499  56.1150001  28.8851007  83.3524258
  59.1663818  31.6098298  77.4850037  58.4974193  32.0944425  77.0014077
  59.0276688  31.8567518  78.3993415  50.9042818  21.1452650  81.1892038
  50.9426917  20.6116241  81.9829156  50.3983111  20.6187856  80.5703015
  63.3069087  33.6442041  84.0832695  63.8587395  33.8073663  84.8481781
  63.6475280  34.2346479  83.4112720  58.2833580  15.9917191  84.6854580
  58.3474906  16.8532022  84.2731978  58.2200700  15.3791193  83.9526939
  57.7585853  18.0640323  88.3327614  58.3857891  17.6817401  88.9465139
  56.9013771  17.8454525  88.6983307  68.1579961  28.4703299  89.9381350
  68.7019865  29.0833257  89.4436305  67.5766806  29.0282877  90.4548363
  54.5351395  19.8716753  74.2645969  54.8304836  18.9627431  74.2113023
  53.6339431  19.8504492  73.9426971  66.4437474  31.5924017  81.0696378
  66.3188613  30.7913756  80.5607323  67.1016565  32.0870210  80.5810347
  58.0645642  17.9472749  80.2473518  57.3432228  18.5608717  80.1080991
  58.8538898  18.4830514  80.1690164  68.5072382  29.3933037  82.6975928
  67.5602718  29.2738388  82.6254254  68.8555156  28.5055535  82.7802189
  60.8671956  15.2827176  86.5214169  61.3906358  15.5289472  87.2840479
  60.6484289  16.1147210  86.1017307  56.2639237  17.5530850  74.3885294
  55.9351943  16.6728229  74.2060400  56.6178608  17.4978519  75.2761684
  65.5118816  29.1885753  78.8980280  65.3643778  28.2602460  79.0787850
  66.3372309  29.2105844  78.4137355  59.3781060  17.8403820  74.7560772
  59.7177133  18.3689741  74.0339380  59.8253180  18.1784226  75.5319338
  69.1152938  30.0114312  79.9845153  70.0399485  29.8057173  79.8469604
  68.9468241  29.7630713  80.8934494  62.0724501  16.2240871  84.2063840
  61.7321321  15.4248684  84.6084520  61.3663507  16.5242582  83.6340673
  62.7240973  13.3090183  82.6591163  63.5467042  12.8350661  82.5370053
  62.9679036  14.0880667  83.1589849  61.3649207  16.3378442  72.9554065
  62.0857570  16.7159694  72.4517782  60.7414511  17.0567318  73.0589043
  65.5080330  17.0423591  73.8912397  65.7243944  17.9248228  73.5901225
  65.0274397  16.6509804  73.1618039  60.2479551  20.0009304  80.4683142
  60.1024132  20.3149607  81.3607423  59.7704755  20.6194204  79.9154040
  62.1075934  16.9911852  80.5164031  62.0937503  16.0952945  80.1796329
  62.8248362  16.9982516  81.1502317  63.9602065  17.4249192  82.5617159
  63.7019843  18.3466263  82.5601489  63.4287105  17.0279627  83.2517623
  68.9048254  30.5299979  75.3407244  69.0785131  29.9646402  74.5881096
  69.3977145  31.3300874  75.1586734  54.7225214  22.5414648  83.4070803
  54.1778682  23.3174456  83.5391077  55.6004563  22.8885453  83.2489924
  61.5112830  15.8726232  75.7851601  61.6328741  14.9442878  75.9842489
  61.2214873  15.8864918  74.8729917  64.3804021  13.5581143  78.9218321
  64.4025717  13.6220476  77.9670301  64.7972080  12.7185651  79.1158827
  74.7587645  23.2936402  76.9597544  75.2018791  22.5443727  76.5616667
  73.8814155  23.2846538  76.5771276  69.8923426  29.8466744  72.4404142
  70.5874331  30.4673436  72.6591457  70.2346576  28.9962095  72.7156520
  55.5091235  21.6684544  86.3000960  54.7672971  21.8167180  86.8865590
  55.1883980  21.9292810  85.4367709  71.7914849  27.2966449  73.9691473
  72.3166173  27.6353722  73.2440793  71.7037202  26.3613464  73.7854608
  63.4534898  31.2100523  86.0981350  63.7622025  30.9649669  86.9704049
  64.2510380  31.4147161  85.6100220  63.4755510  33.3638432  78.3286726
  63.0360500  32.8714811  79.0219583  64.2263627  32.8211400  78.0878801
  55.9547849  29.5549973  78.3311354  56.7805869  29.2553745  77.9509998
  55.6041901  28.7857596  78.7801143  60.9229382  28.9076441  80.4009028
  60.3009392  28.2447146  80.1011256  61.5934249  28.9337573  79.7182676
  54.1556454  27.4736300  79.2900288  53.3188362  27.0458474  79.1084289
  54.1280100  27.6668743  80.2271079  60.9953910  17.3858229  89.9941534
  61.0442065  18.2620352  89.6119304  61.5376424  16.8435623  89.4213177
  71.4808755  27.9299353  89.2742671  70.6904299  27.9123492  88.7347170
  71.2442110  28.4687646  90.0291708  71.6006631  24.7791819  86.5875400
  71.6504635  24.6141827  87.5290922  71.4920554  23.9119078  86.1973280
  60.4842889  27.4580365  73.8767488  60.6331010  28.1415829  73.2234161
  61.2909333  27.4385455  74.3916944  68.8910393  20.7622747  87.9034706
  69.7920256  20.6229212  87.6118704  68.9658367  20.9277202  88.8432884
  63.2253198  18.1389602  86.7487893  62.3556508  18.4323168  86.4770481
  63.4612679  18.7230047  87.4695156  73.1024827  27.1988761  86.8317421
  72.8109636  27.5618741  87.6680882  72.4896959  26.4855769  86.6530753
  74.3020510  24.7641640  79.3519991  75.1367401  25.2031444  79.5157552
  74.4379638  24.2880294  78.5328237  71.3512016  22.3221375  85.2997479
  71.8266137  22.5149022  84.4916330  70.4277581  22.3780561  85.0540863
  58.2395522  23.4845542  74.8828557  57.9941564  22.5807872  75.0808768
  58.4091437  23.4862693  73.9408035  65.9292232  14.3569219  84.2653313
  66.4474176  15.0930246  83.9399802  65.5747365  14.6633212  85.1000072
  57.5091170  19.2173900  72.3814719  56.8160415  19.2918255  71.7254755
  57.2642922  18.4534244  72.9036236  66.1804826  10.7769501  79.7854210
  66.4606580  10.1092690  80.4114636  66.9655433  10.9698597  79.2728873
  63.9838295  29.9528495  71.3479236  63.4112262  30.5718682  70.8949708
  64.5571088  30.5027857  71.8819158  70.0513685  19.1987135  83.5325785
  71.0031107  19.2985233  83.5538009  69.8817135  18.4065404  84.0423869
  68.0728064  16.2842719  83.7185186  67.4777996  16.5647731  83.0231674
  67.7877761  16.7736619  84.4901927  67.2035555  30.2365645  72.4787818
  68.1366228  30.1711207  72.6820694  67.1158767  31.0721912  72.0202351
  72.5301762  22.4193255  82.6468084  72.4978082  21.4809256  82.8327768
  73.1402386  22.4977292  81.9133909  64.3685093  21.2889308  68.6895288
  65.3144198  21.1595516  68.7583706  63.9899338  20.5503970  69.1664717
  72.6796251  19.2104298  82.6926368  72.1635299  18.4262755  82.5056296
  73.5636199  18.8823015  82.8572887  70.3406978  12.9545314  78.6522180
  70.1431799  12.6460402  79.5365512  70.9506683  13.6806953  78.7820110
  78.3478312  23.4809262  81.7874121  79.0781701  23.2194550  82.3481824
  77.7385258  22.7437984  81.8276189  76.4293609  21.6217124  82.3848572
  75.7026773  21.4873089  81.7765064  76.0140896  21.9293953  83.1905290
  64.2523786  25.3407054  90.1495945  65.1726795  25.5185653  90.3435992
  64.2173369  24.3963099  89.9975645  62.5528010  19.2139284  68.6250174
  61.6459466  18.9172397  68.7012887  62.8303991  18.9169102  67.7584460
  53.4705951  20.5345648  79.0749220  53.1508735  19.6810956  78.7823594
  52.9239379  20.7494226  79.8307187  57.2485858  23.2508089  82.7918727
  57.4671868  24.1825197  82.8106760  57.6611632  22.8916063  83.5773530
  64.1690076  13.7576174  74.7794415  63.3590804  13.4123259  75.1549661
  64.8574493  13.4483718  75.3682026  66.0980624  12.8354221  76.4018712
  66.6511663  13.2549674  77.0608735  66.3350711  11.9089969  76.4441668
  62.1213724  18.8241295  92.1821475  62.0210451  19.7735651  92.1133567
  61.9035266  18.4959533  91.3097546  61.3226795  16.0726220  68.7662153
  62.1845959  16.3981118  69.0257970  61.5077139  15.2857715  68.2535219
  53.3394211  24.1548559  81.0442342  52.6457682  23.7402512  80.5312296
  54.0867202  24.1969096  80.4475760  69.4759431  14.9454746  75.9097376
  68.8958101  15.6039550  75.5275428  69.2095364  14.1232091  75.4984793
  67.9262998  14.3459804  78.1118696  68.4262776  14.4576338  77.3033015
  68.5698606  14.0420857  78.7519505  61.9844994  22.2538433  90.9986537
  61.5012075  23.0538793  91.2050426  62.0705933  22.2646378  90.0453981
  55.2530953  24.0866813  78.9208356  55.2301641  24.1854500  77.9690240
  55.5631590  24.9331964  79.2425523  57.9118331  26.1442968  83.0354971
  58.8661585  26.1126910  82.9684902  57.7130855  25.6833592  83.8505197
  58.5017713  24.7144084  85.6025769  59.3210602  25.2088163  85.6260606
  58.7754521  23.7976052  85.5743336  68.2584309  17.1054836  74.9653724
  67.3710165  17.3904487  74.7473919  68.6738299  16.9448600  74.1181001
  71.6098846  17.1301357  78.6808063  72.3859236  17.6197810  78.9532680
  70.8846980  17.5559412  79.1379933  74.0471404  17.8428977  79.7382004
  74.6415895  17.6024713  79.0275312  74.1197988  17.1236107  80.3655540
  56.2668560  31.6862588  80.0525169  56.1323028  30.9262988  79.4863167
  55.8500622  32.4103487  79.5853958  67.4027523  26.8699511  69.0601744
  68.1063373  27.0749514  69.6759400  66.6790172  27.4376273  69.3250828
  68.2325333  22.6209372  75.1804014  68.1760535  23.0777924  74.3411647
  68.7853676  21.8600057  75.0026857  72.0430139  18.4099104  76.0054134
  71.7867073  18.0095740  76.8362341  71.4183007  19.1242898  75.8804273
  76.3542477  21.1495177  78.5125425  75.7942035  21.2188367  79.2856987
  75.7485980  20.9736162  77.7924921  59.4237686  32.5831905  80.2643611
  59.3070070  33.5277337  80.1622302  58.6030132  32.2805466  80.6529411
  69.3114220  27.3082040  71.1100204  70.1459824  26.8763239  70.9277679
  69.1498563  27.1364054  72.0377099  68.9660113  23.8114154  72.4756543
  68.9108916  23.6458425  71.5344988  68.3406168  24.5190187  72.6318733
  53.7552628  19.0482218  86.3017966  54.4011491  18.5381172  86.7905191
  53.5469779  19.7850900  86.8761391  66.2806020  26.1163065  91.8010106
  67.1497179  26.2903718  91.4396741  65.8012771  26.9357482  91.6785836
  62.2756238  13.3122263  72.0541862  62.2634908  14.2564103  72.2110133
  63.1679660  13.1292408  71.7601323  60.4492200  33.2360166  83.4799540
  61.3519447  33.2683777  83.7966035  60.2229570  32.3060617  83.4945876
  62.2045802  31.9891153  80.1409618  61.2541433  31.9893015  80.0273991
  62.5078288  31.2423888  79.6245653  66.0908357   9.9065039  76.3087799
  65.3240753   9.3523526  76.4544481  66.5019062   9.9786908  77.1701950
  58.0950119  16.1949835  90.3992980  58.9581580  15.8386640  90.6096304
  57.5215529  15.8563730  91.0868384  77.9398495  37.8251691  81.2055381
  78.5776905  37.7058439  80.5018721  77.8219338  38.7732535  81.2643333
  74.7488202  37.7779120  81.1416906  74.4106713  37.6620184  80.2537440
  75.6177970  37.3770285  81.1217912  70.6075017  39.6314596  77.1313796
  70.0439883  39.5404533  76.3630084  70.4927412  38.8114500  77.6116289
  75.2307985  38.9313971  87.1003111  75.2196625  38.5366770  86.2283615
  75.3928624  38.1980044  87.6936883  68.1539449  41.1265788  79.9698017
  68.9460741  40.7856612  79.5544316  68.3936100  41.2360763  80.8900170
  71.9515246  41.7151083  86.0482295  71.6605112  42.6196714  85.9328961
  72.5872230  41.7567611  86.7626365  72.8771453  39.0927932  82.6383655
  73.4735025  38.8683954  81.9240618  72.9346424  38.3512677  83.2409103
  72.4496481  36.5467367  70.4733846  72.7022002  36.0248888  69.7117309
  71.5121040  36.3833512  70.5760529  77.4939764  35.5503145  78.2808589
  78.2802853  35.1322568  77.9299006  77.7578468  36.4549237  78.4490237
  82.8948191  35.4878378  79.1841567  83.6273363  34.9177595  79.4179397
  82.1387547  35.0999979  79.6248073  74.5124311  37.9105620  76.3804910
  74.1482518  37.3836241  77.0917831  75.3691427  37.5204089  76.2071395
  80.4173611  29.1999953  83.6436176  80.0856936  30.0695364  83.4197391
  79.8219225  28.8836237  84.3230206  74.1529798  32.9395520  71.3766258
  74.3204200  33.8075756  71.7436729  73.9626967  33.1022801  70.4527548
  76.9105131  41.4012499  83.0432089  76.6105854  42.3037537  82.9347896
  76.5656190  41.1344682  83.8953242  70.3617612  37.8526295  79.0768793
  69.4368109  37.7202509  79.2846485  70.6102026  38.6320515  79.5738736
  80.3102275  33.9195039  80.7229526  79.4019152  33.8510447  80.4288287
  80.2589871  34.3966984  81.5511352  74.1319019  35.3953177  72.3612925
  74.0118644  35.8410228  73.1998405  73.4371607  35.7438495  71.8026463
  67.7226423  37.4959569  79.9112582  67.8518805  37.7494048  80.8251994
  67.0423875  38.0887277  79.5917237  74.3843141  35.3384684  88.6664423
  73.6076475  35.8978604  88.6567288  75.0233704  35.8241467  89.1879293
  82.1763921  32.1211477  82.5007400  81.5338301  32.4144010  81.8547195
  81.6718850  32.0064397  83.3060597  79.8304085  35.8674650  73.1893259
  80.7421941  36.1002037  73.0140957  79.3213732  36.4511695  72.6268338
  72.6389513  38.1470138  88.2282390  73.3804197  38.6855182  87.9517214
  71.9326498  38.7736426  88.3853942  78.1144852  40.2899278  86.8254552
  78.5228209  39.8481689  86.0809184  77.3922114  39.7151906  87.0788745
  74.4675923  35.2271885  84.1988109  75.3137118  35.6511298  84.3422758
  74.4074560  34.5705509  84.8926672  78.4373667  40.8500469  80.5806841
  77.8082530  41.0146183  79.8782909  78.0499329  41.2642078  81.3517805
  82.3162899  41.7854907  77.9351204  81.6313937  42.1653808  77.3848238
  82.4006748  42.3950233  78.6683152  77.6175368  32.8876253  85.8569282
  77.3736300  33.6418314  85.3203558  77.8935298  33.2661601  86.6916529
  79.5713831  39.4314866  84.5346548  79.7830726  40.0746626  83.8580929
  79.5243579  38.5977182  84.0668478  77.1740060  32.0432686  81.4383120
  76.3124539  32.3413940  81.7299858  77.2002494  32.2603085  80.5064153
  70.8825710  40.1346358  80.7836689  71.4527067  40.5633627  80.1454174
  71.4733822  39.8528943  81.4820875  72.9270515  36.7098029  74.6546491
  73.6294558  37.1619073  75.1220417  72.5951144  36.0681848  75.2826384
  71.3750877  35.3009786  89.0297700  70.7449537  35.9826067  89.2633097
  71.2686964  35.1892867  88.0850839  66.6695849  34.9681582  79.9563624
  65.8794903  35.2239110  79.4803735  67.1607096  35.7829920  80.0615665
  80.6859659  42.3086821  82.7068905  81.5077102  41.9067008  82.4251587
  80.6822061  42.2055055  83.6585021  68.6210594  35.3326161  76.9147101
  67.8241758  35.4444855  77.4330597  68.3936187  35.6712813  76.0487992
  74.4516262  41.8570864  84.8629616  74.5160695  42.3191272  85.6987788
  73.7427186  41.2268229  84.9911926  64.9533552  35.2212072  82.3878615
  65.2041590  36.1059082  82.6536191  65.4893100  35.0416674  81.6153707
  88.7765652  38.6525570  79.0553877  88.0229360  38.0832968  78.8997881
  88.9113193  38.6188234  80.0024511  70.6531619  29.6030552  91.3922951
  70.2598565  29.0496750  92.0670596  71.4697760  29.9141130  91.7829469
  73.5699580  31.0188431  88.9843208  74.3109294  31.6195584  88.9047670
  73.8017503  30.2766069  88.4261251  68.7140918  36.2044798  87.2621438
  68.5994433  35.3030055  87.5628537  67.8585436  36.4508495  86.9106254
  75.7932756  44.1462538  88.8608938  75.3496610  43.3598917  88.5429843
  76.4549970  44.3341689  88.1952829  77.8913994  44.4265338  86.8890340
  77.8732469  45.2474219  86.3970609  78.8133914  44.3019414  87.1140481
  74.3487048  41.9409468  87.7313848  74.8815385  41.1797756  87.5013156
  73.8201129  41.6483120  88.4738002  77.5156743  27.0469534  83.2607490
  77.1721013  27.9371175  83.1846600  77.8835706  26.8571191  82.3977075
  77.4807026  37.0378145  71.7679925  76.9653649  37.8082749  72.0068312
  77.2084334  36.3643281  72.3912986  75.0654137  31.8827846  76.8265163
  74.2095733  31.4934696  76.6470802  75.4781089  31.9619806  75.9664949
  76.5953284  29.4174189  81.2256723  76.0918079  29.3804324  80.4124528
  76.8883890  30.3266932  81.2853380  72.8396170  29.5012919  80.2322905
  73.7049166  29.3055727  79.8728794  72.9073678  29.2723270  81.1592261
  82.4541300  39.7910499  73.7033098  81.6770743  39.4521659  73.2588260
  83.1332781  39.7963123  73.0288063  77.2693329  34.9105237  73.5939706
  76.9643465  35.2251386  74.4449849  78.2223771  34.9886657  73.6367039
  80.6932607  39.2644481  80.3599706  80.0356281  39.9543742  80.4479835
  81.4973006  39.6540913  80.7033693  70.4458489  31.7315127  77.6039271
  71.0202240  31.5090308  76.8712464  71.0329471  31.8003821  78.3567873
  79.5038066  37.6188853  78.4103648  80.0169948  38.2518845  78.9125358
  80.1539290  37.0190049  78.0447008  70.7728076  33.7619588  71.6235157
  69.9365388  34.0994274  71.9444431  70.6332845  33.6268567  70.6862294
  72.7481156  28.6056375  76.3314341  72.0945569  28.2905393  75.7070956
  72.7061630  27.9832116  77.0574164  73.8592361  38.8875671  68.2467633
  72.9519423  38.6564924  68.4458782  74.3563393  38.0913290  68.4341614
  76.7660440  47.5973178  71.1664319  76.0922139  47.9004874  71.7749277
  77.1526262  48.4002258  70.8169776  75.9818897  35.0938309  80.6561988
  75.0641458  35.3153256  80.4983677  76.3979040  35.1684619  79.7973696
  76.7653944  36.4929725  75.7864669  77.5125763  37.0051122  75.4771791
  77.0345534  36.1713777  76.6469062  75.0380595  38.9888265  72.7691623
  74.1291814  38.7047298  72.8664093  75.0675678  39.4087344  71.9094930
  80.2699862  42.5994855  76.5382791  79.8162189  41.7585765  76.5947981
  79.6393829  43.2356253  76.8757571  79.2132782  33.5286841  77.7683458
  78.4755538  33.0164227  78.0993701  79.4659555  33.0887223  76.9566735
  78.7132801  44.4371352  77.4732609  79.0055776  44.9976409  76.7544974
  79.2231422  44.7299913  78.2285768  79.3144409  26.3063093  78.3625227
  79.6203286  25.4460456  78.0751142  80.0397014  26.8980713  78.1624221
  65.6068765  36.7093780  76.7506825  65.4093165  36.1163140  76.0257892
  65.0515429  36.4045990  77.4682764  73.5865489  36.6016886  78.8701418
  73.6414098  35.6490722  78.7943895  72.7756691  36.7576325  79.3542717
  71.5257849  35.2193946  76.6291797  70.7125714  35.5188116  77.0356989
  72.0216843  34.8249635  77.3466279  77.1232060  35.6835770  85.4606691
  77.4781448  35.9107243  86.3201157  77.7704191  36.0154147  84.8383946
  82.8529797  38.8054206  76.1656020  82.7147696  38.9955802  75.2377209
  82.4966016  39.5673589  76.6224071  71.0171923  32.7912301  82.2453032
  71.6571303  32.6501060  81.5475996  70.1849454  32.5046815  81.8691634
  82.8799177  40.8730733  81.1767292  83.3135683  40.7806022  82.0250346
  83.5930757  40.8488234  80.5387308  76.6127072  44.4732827  82.7100392
  76.6664094  45.0423764  83.4778108  75.7441853  44.6434712  82.3454429
  68.1014991  36.2357813  74.4347777  67.1712579  36.1742269  74.6517739
  68.1972463  35.7133766  73.6384419  68.0200540  32.7612626  77.0226019
  68.2807357  33.6757959  76.9135179  68.8417712  32.2937069  77.1722632
  69.4925465  34.1750383  84.1924844  70.1648518  33.9667746  83.5437492
  68.6655252  33.9772469  83.7530076  83.7414726  40.9154434  83.7100177
  83.9350616  41.8200244  83.9559452  83.6415345  40.4561853  84.5438762
  75.3951037  30.8012324  86.2090504  74.7478952  31.5002274  86.1154981
  76.1652052  31.2348468  86.5766753  78.8029835  41.0661177  89.2841058
  78.6515341  40.8371728  88.3671141  78.7934514  42.0231778  89.2972403
  75.5715171  38.6393089  84.2687324  76.5007231  38.7904249  84.0956291
  75.1506201  38.7277110  83.4135971  74.3703503  42.6643754  82.0385862
  74.2314589  42.2962538  82.9111800  73.5818099  43.1791393  81.8669820
  75.9208718  42.0425356  79.4274700  75.5858551  42.0026126  80.3232349
  75.4212664  41.3770072  78.9545110  69.8952962  37.4492986  84.9527281
  69.7572760  36.7173225  85.5538820  70.8057886  37.3601886  84.6711468
  78.8567910  39.3881391  69.7011759  78.2397081  38.6628219  69.6044812
  78.3884398  40.1490751  69.3578833  72.5235263  37.1612946  84.4410960
  73.2334882  36.5206138  84.3997579  72.4804571  37.4125841  85.3637141
  80.5122042  44.0980299  87.3617540  80.4534588  43.4139519  86.6948123
  80.9141560  44.8399289  86.9098166  71.2364197  34.1478164  86.2606600
  70.7001554  33.6968902  86.9128196  70.6480905  34.2824072  85.5177064
  80.5139449  42.0619883  85.5931519  79.6266228  41.7245805  85.7157918
  81.0838000  41.3302914  85.8300285  66.9703318  33.2834171  83.3459594
  66.8861507  32.6759841  82.6110004  66.1486025  33.7743190  83.3469091
  77.1427032  31.7687735  78.7129789  77.6395732  31.0157697  78.3930860
  76.3714014  31.8052051  78.1472999  84.9956789  37.4728100  80.3548081
  84.9846666  38.3552816  79.9842014  84.1274169  37.1199651  80.1602618
  76.5039286  46.6208169  84.7150921  77.2167258  47.2555634  84.6426823
  76.0129314  46.7172035  83.8990923  73.7262001  33.9105118  78.4401474
  73.3559788  33.3576158  79.1282380  74.2221093  33.3063251  77.8876474
  81.6129364  36.3676741  76.8218247  82.0789816  37.2004733  76.7478550
  82.0636865  35.9021723  77.5263505  71.5551199  44.3702613  85.5356492
  72.2560659  45.0039096  85.6885886  71.0846314  44.7117344  84.7752131
  79.6805595  42.7120563  73.8204399  79.9565439  42.5977157  74.7298273
  78.8110094  42.3138047  73.7816572  79.5846027  28.7357328  80.8609148
  78.6709107  28.9661555  81.0291355  80.0139128  28.8195772  81.7123181
  79.3552485  36.9247220  83.3609042  78.7023936  37.1723128  82.7061495
  79.7332865  36.1111358  83.0271520  76.3159659  46.9606913  77.4637213
  76.4982054  46.1428569  77.9264965  77.1392645  47.1774606  77.0262103
  75.4040058  37.6667031  89.8475079  74.7280695  37.5661161  90.5177455
  76.2267692  37.5106245  90.3111077  61.7436572  36.4744568  81.1892038
  61.7820672  35.9408159  81.9829156  61.2376865  35.9479774  80.5703015
  74.1462841  48.9733959  84.0832695  74.6981149  49.1365580  84.8481781
  74.4869035  49.5638397  83.4112720  69.1227334  31.3209109  84.6854580
  69.1868661  32.1823940  84.2731978  69.0594455  30.7083110  83.9526939
  68.5979607  33.3932241  88.3327614  69.2251646  33.0109318  88.9465139
  67.7407526  33.1746443  88.6983307  78.9973716  43.7995216  89.9381350
  79.5413620  44.4125175  89.4436305  78.4160560  44.3574795  90.4548363
  77.2831229  46.9215934  81.0696378  77.1582368  46.1205674  80.5607323
  77.9410320  47.4162128  80.5810347  68.9039397  33.2764667  80.2473518
  68.1825983  33.8900635  80.1080991  69.6932653  33.8122432  80.1690164
  79.3466137  44.7224954  82.6975928  78.3996472  44.6030306  82.6254254
  79.6948910  43.8347452  82.7802189  71.7065710  30.6119093  86.5214169
  72.2300112  30.8581390  87.2840479  71.4878044  31.4439128  86.1017307
  67.1032991  32.8822768  74.3885294  66.7745698  32.0020147  74.2060400
  67.4572362  32.8270437  75.2761684  76.3512570  44.5177671  78.8980280
  76.2037533  43.5894378  79.0787850  77.1766064  44.5397761  78.4137355
  70.2174815  33.1695738  74.7560772  70.5570887  33.6981659  74.0339380
  70.6646935  33.5076144  75.5319338  79.9546692  45.3406229  79.9845153
  80.8793240  45.1349091  79.8469604  79.7861995  45.0922631  80.8934494
  72.9118255  31.5532788  84.2063840  72.5715076  30.7540601  84.6084520
  72.2057262  31.8534499  83.6340673  73.5634727  28.6382101  82.6591163
  74.3860796  28.1642579  82.5370053  73.8072791  29.4172585  83.1589849
  72.2042962  31.6670359  72.9554065  72.9251324  32.0451612  72.4517782
  71.5808266  32.3859236  73.0589043  76.3474085  32.3715508  73.8912397
  76.5637699  33.2540146  73.5901225  75.8668152  31.9801722  73.1618039
  71.0873306  35.3301221  80.4683142  70.9417887  35.6441525  81.3607423
  70.6098510  35.9486122  79.9154040  72.9469689  32.3203769  80.5164031
  72.9331258  31.4244863  80.1796329  73.6642117  32.3274433  81.1502317
  74.7995820  32.7541110  82.5617159  74.5413597  33.6758180  82.5601489
  74.2680860  32.3571544  83.2517623  79.7442008  45.8591897  75.3407244
  79.9178886  45.2938319  74.5881096  80.2370900  46.6592792  75.1586734
  65.5618968  37.8706566  83.4070803  65.0172436  38.6466374  83.5391077
  66.4398318  38.2177370  83.2489924  72.3506585  31.2018150  75.7851601
  72.4722496  30.2734796  75.9842489  72.0608627  31.2156836  74.8729917
  75.2197775  28.8873060  78.9218321  75.2419472  28.9512393  77.9670301
  75.6365834  28.0477569  79.1158827  85.5981399  38.6228320  76.9597544
  86.0412545  37.8735645  76.5616667  84.7207910  38.6138456  76.5771276
  80.7317181  45.1758661  72.4404142  81.4268085  45.7965354  72.6591457
  81.0740331  44.3254012  72.7156520  66.3484990  36.9976462  86.3000960
  65.6066726  37.1459098  86.8865590  66.0277734  37.2584728  85.4367709
  82.6308604  42.6258367  73.9691473  83.1559928  42.9645639  73.2440793
  82.5430956  41.6905382  73.7854608  74.2928653  46.5392440  86.0981350
  74.6015779  46.2941587  86.9704049  75.0904135  46.7439079  85.6100220
  71.8347664  32.7150147  89.9941534  71.8835820  33.5912270  89.6119304
  72.3770178  32.1727540  89.4213177  82.3202510  43.2591270  89.2742671
  81.5298054  43.2415409  88.7347170  82.0835865  43.7979564  90.0291708
  82.4400385  40.1083737  86.5875400  82.4898390  39.9433744  87.5290922
  82.3314308  39.2410996  86.1973280  79.7304147  36.0914665  87.9034706
  80.6314010  35.9521130  87.6118704  79.8052122  36.2569120  88.8432884
  74.0646953  33.4681520  86.7487893  73.1950262  33.7615086  86.4770481
  74.3006433  34.0521965  87.4695156  83.9418582  42.5280678  86.8317421
  83.6503390  42.8910659  87.6680882  83.3290713  41.8147687  86.6530753
  85.1414264  40.0933558  79.3519991  85.9761156  40.5323362  79.5157552
  85.2773393  39.6172211  78.5328237  82.1905770  37.6513293  85.2997479
  82.6659892  37.8440939  84.4916330  81.2671335  37.7072479  85.0540863
  69.0789277  38.8137460  74.8828557  68.8335319  37.9099790  75.0808768
  69.2485191  38.8154611  73.9408035  76.7685987  29.6861136  84.2653313
  77.2867930  30.4222163  83.9399802  76.4141119  29.9925130  85.1000072
  68.3484924  34.5465818  72.3814719  67.6554169  34.6210173  71.7254755
  68.1036676  33.7826161  72.9036236  77.0198581  26.1061419  79.7854210
  77.3000334  25.4384608  80.4114636  77.8049188  26.2990515  79.2728873
  80.8907439  34.5279053  83.5325785  81.8424862  34.6277151  83.5538009
  80.7210889  33.7357322  84.0423869  78.9121819  31.6134636  83.7185186
  78.3171751  31.8939649  83.0231674  78.6271515  32.1028537  84.4901927
  78.0429309  45.5657563  72.4787818  78.9759982  45.5003125  72.6820694
  77.9552522  46.4013830  72.0202351  80.6717326  44.8823433  69.4391766
  80.5930957  44.5483297  70.3327524  81.4926992  45.3745201  69.4383238
  83.3695517  37.7485173  82.6468084  83.3371837  36.8101173  82.8327768
  83.9796141  37.8269209  81.9133909  75.2078848  36.6181226  68.6895288
  76.1537952  36.4887434  68.7583706  74.8293093  35.8795888  69.1664717
  83.5190005  34.5396216  82.6926368  83.0029054  33.7554673  82.5056296
  84.4029954  34.2114933  82.8572887  81.1800732  28.2837232  78.6522180
  80.9825553  27.9752320  79.5365512  81.7900438  29.0098871  78.7820110
  89.1872067  38.8101180  81.7874121  89.9175455  38.5486468  82.3481824
  88.5779012  38.0729901  81.8276189  87.2687364  36.9509042  82.3848572
  86.5420527  36.8165007  81.7765064  86.8534651  37.2585871  83.1905290
  75.0917540  40.6698972  90.1495945  76.0120550  40.8477571  90.3435992
  75.0567123  39.7255017  89.9975645  73.3921765  34.5431202  68.6250174
  72.4853220  34.2464315  68.7012887  73.6697746  34.2461020  67.7584460
  64.3099705  35.8637565  79.0749220  63.9902490  35.0102874  78.7823594
  63.7633133  36.0786144  79.8307187  68.0879613  38.5800006  82.7918727
  68.3065623  39.5117114  82.8106760  68.5005387  38.2207981  83.5773530
  75.0083831  29.0868092  74.7794415  74.1984559  28.7415177  75.1549661
  75.6968248  28.7775635  75.3682026  76.9374379  28.1646139  76.4018712
  77.4905417  28.5841592  77.0608735  77.1744465  27.2381887  76.4441668
  72.9607478  34.1533212  92.1821475  72.8604205  35.1027569  92.1133567
  72.7429020  33.8251451  91.3097546  64.1787965  39.4840477  81.0442342
  63.4851437  39.0694430  80.5312296  64.9260956  39.5261013  80.4475760
  80.3153186  30.2746664  75.9097376  79.7351855  30.9331468  75.5275428
  80.0489119  29.4524008  75.4984793  78.7656752  29.6751721  78.1118696
  79.2656531  29.7868256  77.3033015  79.4092360  29.3712774  78.7519505
  72.8238748  37.5830351  90.9986537  72.3405830  38.3830711  91.2050426
  72.9099687  37.5938296  90.0453981  66.0924708  39.4158731  78.9208356
  66.0695396  39.5146418  77.9690240  66.4025344  40.2623882  79.2425523
  68.7512086  41.4734886  83.0354971  69.7055339  41.4418828  82.9684902
  68.5524609  41.0125509  83.8505197  69.3411468  40.0436002  85.6025769
  70.1604357  40.5380080  85.6260606  69.6148275  39.1267970  85.5743336
  79.0978064  32.4346754  74.9653724  78.2103919  32.7196405  74.7473919
  79.5132053  32.2740517  74.1181001  82.4492600  32.4593275  78.6808063
  83.2252990  32.9489728  78.9532680  81.7240734  32.8851329  79.1379933
  84.8865159  33.1720894  79.7382004  85.4809650  32.9316630  79.0275312
  84.9591742  32.4528025  80.3655540  78.2421277  42.1991429  69.0601744
  78.9457128  42.4041431  69.6759400  77.5183926  42.7668191  69.3250828
  79.0719088  37.9501290  75.1804014  79.0154289  38.4069841  74.3411647
  79.6247430  37.1891975  75.0026857  82.8823894  33.7391022  76.0054134
  82.6260828  33.3387658  76.8362341  82.2576762  34.4534816  75.8804273
  87.1936231  36.4787095  78.5125425  86.6335789  36.5480284  79.2856987
  86.5879735  36.3028080  77.7924921  80.1507975  42.6373958  71.1100204
  80.9853579  42.2055156  70.9277679  79.9892318  42.4655972  72.0377099
  79.8053867  39.1406071  72.4756543  79.7502671  38.9750343  71.5344988
  79.1799922  39.8482104  72.6318733  64.5946382  34.3774136  86.3017966
  65.2405246  33.8673090  86.7905191  64.3863533  35.1142817  86.8761391
  77.1199774  41.4454983  91.8010106  77.9890934  41.6195635  91.4396741
  76.6406526  42.2649400  91.6785836  73.1149993  28.6414180  72.0541862
  73.1028662  29.5856020  72.2110133  74.0073414  28.4584326  71.7601323
  76.9302112  25.2356957  76.3087799  76.1634508  24.6815444  76.4544481
  77.3412817  25.3078826  77.1701950  68.9343873  31.5241753  90.3992980
  69.7975335  31.1678558  90.6096304  68.3609284  31.1855648  91.0868384
  88.7792250  53.1543609  81.2055381  89.4170660  53.0350356  80.5018721
  88.6613093  54.1024453  81.2643333  85.5881956  53.1071037  81.1416906
  85.2500468  52.9912102  80.2537440  86.4571724  52.7062202  81.1217912
  81.4468772  54.9606514  77.1313796  80.8833637  54.8696451  76.3630084
  81.3321167  54.1406418  77.6116289  86.0701739  54.2605889  87.1003111
  86.0590380  53.8658687  86.2283615  86.2322379  53.5271962  87.6936883
  87.0268331  58.6277481  72.4428261  86.3756310  59.2131562  72.0562275
  87.8212693  59.1583676  72.5023299  80.9523958  55.7166618  72.8415396
  81.7254834  55.1695606  72.7028272  81.3049357  56.5810868  73.0529857
  82.7909000  57.0443001  86.0482295  82.4998866  57.9488632  85.9328961
  83.4265985  57.0859528  86.7626365  83.7165207  54.4219849  82.6383655
  84.3128779  54.1975872  81.9240618  83.7740179  53.6804595  83.2409103
  83.2890236  51.8759285  70.4733846  83.5415756  51.3540806  69.7117309
  82.3514795  51.7125430  70.5760529  88.3333518  50.8795063  78.2808589
  89.1196608  50.4614486  77.9299006  88.5972223  51.7841155  78.4490237
  88.5043596  56.3167913  72.9797246  87.8689429  56.3902540  73.6918150
  88.1741002  56.9061512  72.3016325  93.7341946  50.8170296  79.1841567
  94.4667118  50.2469513  79.4179397  92.9781301  50.4291897  79.6248073
  83.0086524  53.7787391  72.6758221  82.8922782  53.1032294  73.3439305
  83.1188784  53.2919764  71.8590374  85.3518065  53.2397538  76.3804910
  84.9876273  52.7128159  77.0917831  86.2085181  52.8496007  76.2071395
  91.2567366  44.5291870  83.6436176  90.9250691  45.3987281  83.4197391
  90.6612979  44.2128154  84.3230206  84.9923552  48.2687437  71.3766258
  85.1597955  49.1367674  71.7436729  84.8020721  48.4314719  70.4527548
  87.7498885  56.7304416  83.0432089  87.4499609  57.6329455  82.9347896
  87.4049945  56.4636599  83.8953242  81.2011367  53.1818213  79.0768793
  80.2761863  53.0494427  79.2846485  81.4495780  53.9612432  79.5738736
  91.1496029  49.2486956  80.7229526  90.2412907  49.1802365  80.4288287
  91.0983625  49.7258901  81.5511352  84.9712773  50.7245095  72.3612925
  84.8512398  51.1702146  73.1998405  84.2765362  51.0730412  71.8026463
  82.7319665  63.4948737  76.0103056  82.6543695  64.4456562  76.0891537
  82.1281309  63.1494609  76.6677983  85.2236895  50.6676602  88.6664423
  84.4470229  51.2270522  88.6567288  85.8627458  51.1533385  89.1879293
  93.0157676  47.4503395  82.5007400  92.3732056  47.7435928  81.8547195
  92.5112604  47.3356315  83.3060597  90.6697839  51.1966568  73.1893259
  91.5815695  51.4293955  73.0140957  90.1607486  51.7803612  72.6268338
  83.4783267  53.4762055  88.2282390  84.2197952  54.0147099  87.9517214
  82.7720253  54.1028344  88.3853942  88.9538607  55.6191196  86.8254552
  89.3621963  55.1773606  86.0809184  88.2315868  55.0443823  87.0788745
  85.3069677  50.5563803  84.1988109  86.1530872  50.9803216  84.3422758
  85.2468315  49.8997427  84.8926672  89.2767422  56.1792386  80.5806841
  88.6476284  56.3438101  79.8782909  88.8893084  56.5933996  81.3517805
  93.1556654  57.1146824  77.9351204  92.4707692  57.4945726  77.3848238
  93.2400503  57.7242151  78.6683152  88.4569122  48.2168171  85.8569282
  88.2130054  48.9710231  85.3203558  88.7329053  48.5953519  86.6916529
  90.4107585  54.7606783  84.5346548  90.6224480  55.4038543  83.8580929
  90.3637333  53.9269100  84.0668478  88.0133814  47.3724604  81.4383120
  87.1518293  47.6705858  81.7299858  88.0396249  47.5895003  80.5064153
  84.8295383  55.9166795  77.8456926  85.2933729  56.1954498  77.0561548
  84.5652182  55.0150239  77.6630016  81.7219465  55.4638276  80.7836689
  82.2920822  55.8925544  80.1454174  82.3127576  55.1820861  81.4820875
  83.7664270  52.0389947  74.6546491  84.4688313  52.4910991  75.1220417
  83.4344898  51.3973766  75.2826384  82.2144631  50.6301704  89.0297700
  81.5843292  51.3117984  89.2633097  82.1080719  50.5184785  88.0850839
  77.5089603  50.2973500  79.9563624  76.7188657  50.5531028  79.4803735
  78.0000851  51.1121837  80.0615665  91.5253413  57.6378739  82.7068905
  92.3470857  57.2358926  82.4251587  91.5215816  57.5346973  83.6585021
  79.4604349  50.6618079  76.9147101  78.6635512  50.7736773  77.4330597
  79.2329941  51.0004731  76.0487992  85.2910017  57.1862782  84.8629616
  85.3554449  57.6483189  85.6987788  84.5820940  56.5560147  84.9911926
  75.7927306  50.5503990  82.3878615  76.0435345  51.4351000  82.6536191
  76.3286855  50.3708592  81.6153707  99.6159406  53.9817487  79.0553877
  98.8623114  53.4124885  78.8997881  99.7506947  53.9480152  80.0024511
  85.0058034  58.8530890  74.7308596  84.8703709  59.6982425  75.1593444
  85.5467847  59.0550167  73.9674530  81.4925374  44.9322469  91.3922951
  81.0992319  44.3788668  92.0670596  82.3091514  45.2433048  91.7829469
  80.2682316  59.4872084  77.3859274  80.4448945  60.4090049  77.1980258
  81.0639150  59.1730503  77.8153654  84.4093335  46.3480348  88.9843208
  85.1503048  46.9487502  88.9047670  84.6411258  45.6057986  88.4261251
  79.5534673  51.5336716  87.2621438  79.4388188  50.6321973  87.5628537
  78.6979191  51.7800412  86.9106254  86.6326511  59.4754456  88.8608938
  86.1890365  58.6890835  88.5429843  87.2943724  59.6633607  88.1952829
  81.3913632  61.0050258  83.3869617  81.9421057  60.8767321  82.6146611
  80.5525108  61.3045147  83.0364510  88.7307749  59.7557256  86.8890340
  88.7126224  60.5766137  86.3970609  89.6527669  59.6311331  87.1140481
  85.1880803  57.2701385  87.7313848  85.7209140  56.5089674  87.5013156
  84.6594884  56.9775037  88.4738002  88.3550498  42.3761451  83.2607490
  88.0114767  43.2663093  83.1846600  88.7229460  42.1863109  82.3977075
  88.3200780  52.3670063  71.7679925  87.8047404  53.1374667  72.0068312
  88.0478089  51.6935199  72.3912986  85.9047891  47.2119763  76.8265163
  85.0489488  46.8226614  76.6470802  86.3174843  47.2911724  75.9664949
  87.4347038  44.7466107  81.2256723  86.9311834  44.7096242  80.4124528
  87.7277645  45.6558849  81.2853380  83.6789924  44.8304836  80.2322905
  84.5442921  44.6347645  79.8728794  83.7467433  44.6015188  81.1592261
  93.2935055  55.1202417  73.7033098  92.5164497  54.7813577  73.2588260
  93.9726536  55.1255040  73.0288063  88.1087084  50.2397155  73.5939706
  87.8037219  50.5543304  74.4449849  89.0617526  50.3178575  73.6367039
  86.5533515  56.3987378  75.2432660  86.0254877  55.6640138  74.9305897
  86.0521018  57.1762054  74.9972628  91.5326361  54.5936398  80.3599706
  90.8750036  55.2835660  80.4479835  92.3366761  54.9832830  80.7033693
  81.2852243  47.0607044  77.6039271  81.8595995  46.8382226  76.8712464
  81.8723226  47.1295739  78.3567873  90.3431820  52.9480771  78.4103648
  90.8563702  53.5810763  78.9125358  90.9933044  52.3481967  78.0447008
  81.6121830  49.0911505  71.6235157  80.7759142  49.4286192  71.9444431
  81.4726600  48.9560485  70.6862294  83.5874911  43.9348293  76.3314341
  82.9339323  43.6197310  75.7070956  83.5455385  43.3124034  77.0574164
  84.6986116  54.2167588  68.2467633  83.7913177  53.9856842  68.4458782
  85.1957148  53.4205207  68.4341614  87.6054195  62.9265095  71.1664319
  86.9315893  63.2296792  71.7749277  87.9920017  63.7294176  70.8169776
  86.8212651  50.4230227  80.6561988  85.9035213  50.6445174  80.4983677
  87.2372795  50.4976537  79.7973696  87.6047699  51.8221642  75.7864669
  88.3519518  52.3343040  75.4771791  87.8739288  51.5005695  76.6469062
  85.8774349  54.3180183  72.7691623  84.9685568  54.0339216  72.8664093
  85.9069433  54.7379262  71.9094930  91.1093617  57.9286773  76.5382791
  90.6555944  57.0877682  76.5947981  90.4787583  58.5648171  76.8757571
  90.0526536  48.8578759  77.7683458  89.3149293  48.3456145  78.0993701
  90.3053310  48.4179140  76.9566735  89.5526556  59.7663269  77.4732609
  89.8449530  60.3268326  76.7544974  90.0625176  60.0591830  78.2285768
  90.1538163  41.6355011  78.3625227  90.4597040  40.7752374  78.0751142
  90.8790768  42.2272631  78.1624221  84.4259243  51.9308804  78.8701418
  84.4807853  50.9782640  78.7943895  83.6150445  52.0868243  79.3542717
  85.5750437  55.8588927  70.1079702  85.1369867  55.1424786  69.6485339
  86.3160878  56.0865042  69.5464793  82.3651603  50.5485863  76.6291797
  81.5519469  50.8480034  77.0356989  82.8610597  50.1541552  77.3466279
  84.5160181  60.5443620  78.5626062  84.4736360  60.7704467  77.6334594
  85.4322880  60.3106995  78.7111863  87.9625815  51.0127688  85.4606691
  88.3175202  51.2399161  86.3201157  88.6097946  51.3446065  84.8383946
  93.6923552  54.1346124  76.1656020  93.5541450  54.3247720  75.2377209
  93.3359770  54.8965507  76.6224071  81.8565678  48.1204219  82.2453032
  82.4965057  47.9792978  81.5475996  81.0243208  47.8338732  81.8691634
  93.7192931  56.2022651  81.1767292  94.1529438  56.1097940  82.0250346
  94.4324512  56.1780151  80.5387308  82.6325982  57.4206649  78.3588025
  83.4266580  56.9256969  78.1570600  81.9217674  56.8924512  77.9955730
  87.4520826  59.8024745  82.7100392  87.5057848  60.3715681  83.4778108
  86.5835608  59.9726630  82.3454429  78.8594294  48.0904544  77.0226019
  79.1201112  49.0049877  76.9135179  79.6811467  47.6228986  77.1722632
  80.3319220  49.5042301  84.1924844  81.0042273  49.2959663  83.5437492
  79.5049006  49.3064387  83.7530076  94.5808481  56.2446351  83.7100177
  94.7744371  57.1492162  83.9559452  94.4809099  55.7853771  84.5438762
  86.2344792  46.1304242  86.2090504  85.5872707  46.8294192  86.1154981
  87.0045807  46.5640386  86.5766753  89.6423590  56.3953094  89.2841058
  89.4909096  56.1663646  88.3671141  89.6328269  57.3523696  89.2972403
  86.4108926  53.9685007  84.2687324  87.3400986  54.1196167  84.0956291
  85.9899956  54.0569028  83.4135971  85.2097258  57.9935671  82.0385862
  85.0708343  57.6254456  82.9111800  84.4211854  58.5083311  81.8669820
  85.8045410  63.0944768  73.3811398  85.9797165  62.6232811  74.1957021
  85.1178198  63.7210534  73.6092659  86.7602473  57.3717274  79.4274700
  86.4252305  57.3318044  80.3232349  86.2606419  56.7061990  78.9545110
  80.7346717  52.7784904  84.9527281  80.5966515  52.0465143  85.5538820
  81.6451640  52.6893804  84.6711468  89.6961665  54.7173308  69.7011759
  89.0790835  53.9920137  69.6044812  89.2278153  55.4782669  69.3578833
  83.3629017  52.4904863  84.4410960  84.0728636  51.8498056  84.3997579
  83.3198326  52.7417758  85.3637141  91.3515796  59.4272217  87.3617540
  91.2928342  58.7431437  86.6948123  91.7535315  60.1691207  86.9098166
  82.0757951  49.4770081  86.2606600  81.5395308  49.0260820  86.9128196
  81.4874660  49.6115990  85.5177064  80.3706495  66.2434131  80.1551258
  80.6103093  66.8752655  80.8330277  79.5275691  65.8922171  80.4416618
  81.4860210  48.9358733  68.8233063  80.6089677  48.8147533  68.4595310
  81.9617963  48.1444811  68.5711952  91.3533203  57.3911801  85.5931519
  90.4659982  57.0537722  85.7157918  91.9231754  56.6594832  85.8300285
  77.8097073  48.6126089  83.3459594  77.7255261  48.0051759  82.6110004
  76.9879779  49.1035107  83.3469091  84.8834357  62.0513253  82.5592762
  84.8104528  62.8568225  83.0712067  84.4411750  62.2505219  81.7340784
  84.6724136  61.2885023  76.0695584  83.8891658  61.8306703  76.1633808
  85.3716882  61.8059003  76.4689825  87.9820787  47.0979653  78.7129789
  88.4789486  46.3449615  78.3930860  87.2107768  47.1343969  78.1472999
  95.8350544  52.8020018  80.3548081  95.8240420  53.6844733  79.9842014
  94.9667923  52.4491569  80.1602618  87.3433040  61.9500087  84.7150921
  88.0561013  62.5847552  84.6426823  86.8523069  62.0463953  83.8990923
  89.0650567  55.8551340  76.2868213  88.1306846  55.9752802  76.1172917
  89.2427236  54.9523806  76.0228223  84.5655755  49.2397035  78.4401474
  84.1953543  48.6868076  79.1282380  85.0614848  48.6355169  77.8876474
  92.4523119  51.6968659  76.8218247  92.9183571  52.5296651  76.7478550
  92.9030619  51.2313641  77.5263505  82.3944954  59.6994531  85.5356492
  83.0954413  60.3331013  85.6885886  81.9240069  60.0409262  84.7752131
  90.5199350  58.0412480  73.8204399  90.7959194  57.9269075  74.7298273
  89.6503848  57.6429965  73.7816572  90.4239781  44.0649246  80.8609148
  89.5102861  44.2953473  81.0291355  90.8532883  44.1487690  81.7123181
  90.1946240  52.2539138  83.3609042  89.5417690  52.5015045  82.7061495
  90.5726620  51.4403276  83.0271520  87.1553414  62.2898831  77.4637213
  87.3375808  61.4720487  77.9264965  87.9786400  62.5066523  77.0262103
  87.4895579  61.2167016  74.7252261  88.0183346  60.7059471  74.1122423
  87.7523799  60.9009546  75.5897794  86.2433813  52.9958949  89.8475079
  85.5674450  52.8953078  90.5177455  87.0661447  52.8398163  90.3111077
  77.9912672  59.2330886  82.4687595  78.5766109  58.4874573  82.6015499
  77.7937510  59.5434842  83.3524258  80.8451327  62.2682133  77.4850037
  80.1761702  62.7528261  77.0014077  80.7064197  62.5151353  78.3993415
  84.9856596  64.3025876  84.0832695  85.5374904  64.4657498  84.8481781
  85.3262789  64.8930314  83.4112720  79.9621089  46.6501026  84.6854580
  80.0262415  47.5115857  84.2731978  79.8988209  46.0375028  83.9526939
  79.4373362  48.7224159  88.3327614  80.0645400  48.3401236  88.9465139
  78.5801280  48.5038361  88.6983307  89.8367470  59.1287134  89.9381350
  90.3807374  59.7417092  89.4436305  89.2554315  59.6866712  90.4548363
  88.1224983  62.2507852  81.0696378  87.9976122  61.4497592  80.5607323
  88.7804074  62.7454045  80.5810347  79.7433151  48.6056584  80.2473518
  79.0219737  49.2192552  80.1080991  80.5326407  49.1414349  80.1690164
  90.1859891  60.0516872  82.6975928  89.2390227  59.9322223  82.6254254
  90.5342665  59.1639370  82.7802189  82.5459465  45.9411011  86.5214169
  83.0693867  46.1873308  87.2840479  82.3271798  46.7731046  86.1017307
  77.9426746  48.2114686  74.3885294  77.6139452  47.3312065  74.2060400
  78.2966117  48.1562354  75.2761684  87.1906325  59.8469588  78.8980280
  87.0431287  58.9186296  79.0787850  88.0159818  59.8689679  78.4137355
  81.0568569  48.4987655  74.7560772  81.3964642  49.0273577  74.0339380
  81.5040689  48.8368062  75.5319338  90.7940447  60.6698147  79.9845153
  91.7186994  60.4641008  79.8469604  90.6255750  60.4214548  80.8934494
  83.7512010  46.8824706  84.2063840  83.4108830  46.0832519  84.6084520
  83.0451016  47.1826417  83.6340673  84.4028482  43.9674019  82.6591163
  85.2254551  43.4934497  82.5370053  84.6466545  44.7464502  83.1589849
  83.0436716  46.9962277  72.9554065  83.7645079  47.3743530  72.4517782
  82.4202020  47.7151154  73.0589043  87.1867839  47.7007426  73.8912397
  87.4031453  48.5832064  73.5901225  86.7061906  47.3093639  73.1618039
  81.9267060  50.6593139  80.4683142  81.7811641  50.9733442  81.3607423
  81.4492264  51.2778039  79.9154040  83.7863443  47.6495687  80.5164031
  83.7725012  46.7536780  80.1796329  84.5035871  47.6566351  81.1502317
  85.6389574  48.0833027  82.5617159  85.3807352  49.0050098  82.5601489
  85.1074614  47.6863462  83.2517623  90.5835763  61.1883814  75.3407244
  90.7572640  60.6230237  74.5881096  91.0764654  61.9884709  75.1586734
  76.4012723  53.1998484  83.4070803  75.8566191  53.9758292  83.5391077
  77.2792072  53.5469288  83.2489924  83.1900339  46.5310067  75.7851601
  83.3116250  45.6026714  75.9842489  82.9002382  46.5448753  74.8729917
  86.0591530  44.2164978  78.9218321  86.0813226  44.2804311  77.9670301
  86.4759589  43.3769487  79.1158827  96.4375154  53.9520237  76.9597544
  96.8806300  53.2027563  76.5616667  95.5601664  53.9430374  76.5771276
  91.5710935  60.5050579  72.4404142  92.2661840  61.1257272  72.6591457
  91.9134085  59.6545930  72.7156520  77.1878744  52.3268380  86.3000960
  76.4460480  52.4751015  86.8865590  76.8671489  52.5876645  85.4367709
  93.4702358  57.9550284  73.9691473  93.9953682  58.2937557  73.2440793
  93.3824711  57.0197300  73.7854608  85.1322407  61.8684358  86.0981350
  85.4409534  61.6233505  86.9704049  85.9297889  62.0730997  85.6100220
  85.1543019  64.0222268  78.3286726  84.7148009  63.5298646  79.0219583
  85.9051136  63.4795235  78.0878801  77.6335358  60.2133809  78.3311354
  78.4593378  59.9137580  77.9509998  77.2829410  59.4441431  78.7801143
  82.6016891  59.5660277  80.4009028  81.9796901  58.9030982  80.1011256
  83.2721758  59.5921409  79.7182676  75.8343963  58.1320135  79.2900288
  74.9975871  57.7042309  79.1084289  75.8067609  58.3252578  80.2271079
  82.6741419  48.0442065  89.9941534  82.7229574  48.9204188  89.6119304
  83.2163933  47.5019458  89.4213177  93.1596264  58.5883188  89.2742671
  92.3691808  58.5707327  88.7347170  92.9229619  59.1271482  90.0291708
  93.2794139  55.4375654  86.5875400  93.3292144  55.2725662  87.5290922
  93.1708063  54.5702913  86.1973280  82.1630398  58.1164200  73.8767488
  82.3118519  58.7999665  73.2234161  82.9696842  58.0969290  74.3916944
  90.5697902  51.4206582  87.9034706  91.4707765  51.2813047  87.6118704
  90.6445876  51.5861037  88.8432884  84.9040707  48.7973437  86.7487893
  84.0344017  49.0907003  86.4770481  85.1400188  49.3813882  87.4695156
  94.7812336  57.8572596  86.8317421  94.4897145  58.2202576  87.6680882
  94.1684468  57.1439604  86.6530753  95.9808019  55.4225476  79.3519991
  96.8154910  55.8615280  79.5157552  96.1167147  54.9464129  78.5328237
  93.0299525  52.9805211  85.2997479  93.5053646  53.1732857  84.4916330
  92.1065090  53.0364396  85.0540863  87.6079741  45.0153054  84.2653313
  88.1261685  45.7514081  83.9399802  87.2534874  45.3217047  85.1000072
  79.1878679  49.8757735  72.3814719  78.4947924  49.9502090  71.7254755
  78.9430431  49.1118079  72.9036236  87.8592335  41.4353337  79.7854210
  88.1394089  40.7676526  80.4114636  88.6442942  41.6282432  79.2728873
  85.6625804  60.6112331  71.3479236  85.0899771  61.2302518  70.8949708
  86.2358597  61.1611692  71.8819158  91.7301194  49.8570971  83.5325785
  92.6818616  49.9569068  83.5538009  91.5604644  49.0649239  84.0423869
  89.7515573  46.9426554  83.7185186  89.1565505  47.2231567  83.0231674
  89.4665270  47.4320455  84.4901927  88.8823063  60.8949481  72.4787818
  89.8153737  60.8295042  72.6820694  88.7946276  61.7305748  72.0202351
  91.5111080  60.2115351  69.4391766  91.4324712  59.8775215  70.3327524
  92.3320747  60.7037119  69.4383238  94.2089271  53.0777090  82.6468084
  94.1765591  52.1393091  82.8327768  94.8189895  53.1561127  81.9133909
  86.0472602  51.9473143  68.6895288  86.9931707  51.8179351  68.7583706
  85.6686847  51.2087805  69.1664717  94.3583760  49.8688134  82.6926368
  93.8422808  49.0846590  82.5056296  95.2423708  49.5406850  82.8572887
  92.0194487  43.6129149  78.6522180  91.8219308  43.3044238  79.5365512
  92.6294192  44.3390788  78.7820110 100.0265821  54.1393097  81.7874121
 100.7569210  53.8778385  82.3481824  99.4172767  53.4021819  81.8276189
  98.1081118  52.2800960  82.3848572  97.3814282  52.1456925  81.7765064
  97.6928405  52.5877788  83.1905290  85.9311295  55.9990889  90.1495945
  86.8514304  56.1769488  90.3435992  85.8960878  55.0546935  89.9975645
  84.2315519  49.8723120  68.6250174  83.3246975  49.5756232  68.7012887
  84.5091500  49.5752938  67.7584460  78.9273367  53.9091924  82.7918727
  79.1459377  54.8409032  82.8106760  79.3399141  53.5499899  83.5773530
  85.8477585  44.4160009  74.7794415  85.0378313  44.0707094  75.1549661
  86.5362002  44.1067553  75.3682026  87.7768133  43.4938056  76.4018712
  88.3299172  43.9133510  77.0608735  88.0138220  42.5673804  76.4441668
  83.8001233  49.4825130  92.1821475  83.6997959  50.4319487  92.1133567
  83.5822775  49.1543369  91.3097546  83.0014304  46.7310055  68.7662153
  83.8633468  47.0564953  69.0257970  83.1864648  45.9441551  68.2535219
  91.1546940  45.6038581  75.9097376  90.5745610  46.2623385  75.5275428
  90.8882873  44.7815926  75.4984793  89.6050507  45.0043639  78.1118696
  90.1050285  45.1160174  77.3033015  90.2486115  44.7004692  78.7519505
  83.6632503  52.9122269  90.9986537  83.1799584  53.7122629  91.2050426
  83.7493442  52.9230214  90.0453981  79.5905840  56.8026803  83.0354971
  80.5449094  56.7710746  82.9684902  79.3918364  56.3417427  83.8505197
  80.1805222  55.3727919  85.6025769  80.9998111  55.8671998  85.6260606
  80.4542030  54.4559888  85.5743336  89.9371818  47.7638672  74.9653724
  89.0497674  48.0488322  74.7473919  90.3525808  47.6032435  74.1181001
  93.2886355  47.7885193  78.6808063  94.0646745  48.2781645  78.9532680
  92.5634489  48.2143247  79.1379933  95.7258913  48.5012812  79.7382004
  96.3203404  48.2608548  79.0275312  95.7985497  47.7819943  80.3655540
  77.9456069  62.3446423  80.0525169  77.8110537  61.5846824  79.4863167
  77.5288131  63.0687323  79.5853958  89.0815032  57.5283346  69.0601744
  89.7850882  57.7333349  69.6759400  88.3577681  58.0960108  69.3250828
  89.9112842  53.2793208  75.1804014  89.8548044  53.7361759  74.3411647
  90.4641185  52.5183892  75.0026857  93.7217648  49.0682940  76.0054134
  93.4654582  48.6679575  76.8362341  93.0970516  49.7826734  75.8804273
  98.0329986  51.8079013  78.5125425  97.4729544  51.8772202  79.2856987
  97.4273489  51.6319997  77.7924921  81.1025195  63.2415740  80.2643611
  80.9857579  64.1861172  80.1622302  80.2817641  62.9389301  80.6529411
  90.9901729  57.9665876  71.1100204  91.8247333  57.5347074  70.9277679
  90.8286072  57.7947889  72.0377099  90.6447622  54.4697989  72.4756543
  90.5896425  54.3042260  71.5344988  90.0193677  55.1774022  72.6318733
  75.4340137  49.7066053  86.3017966  76.0799000  49.1965007  86.7905191
  75.2257288  50.4434735  86.8761391  87.9593529  56.7746901  91.8010106
  88.8284688  56.9487553  91.4396741  87.4800280  57.5941318  91.6785836
  83.9543747  43.9706098  72.0541862  83.9422417  44.9147938  72.2110133
  84.8467169  43.7876243  71.7601323  82.1279709  63.8944002  83.4799540
  83.0306956  63.9267612  83.7966035  81.9017079  62.9644453  83.4945876
  83.8833311  62.6474988  80.1409618  82.9328942  62.6476850  80.0273991
  84.1865797  61.9007723  79.6245653  87.7695866  40.5648875  76.3087799
  87.0028262  40.0107361  76.4544481  88.1806571  40.6370743  77.1701950
  79.7737628  46.8533670  90.3992980  80.6369089  46.4970475  90.6096304
  79.2003038  46.5147565  91.0868384  99.6186004  68.4835527  81.2055381
 100.2564414  68.3642274  80.5018721  99.5006847  69.4316371  81.2643333
  96.4275711  68.4362955  81.1416906  96.0894222  68.3204020  80.2537440
  97.2965479  68.0354120  81.1217912  92.2862526  70.2898431  77.1313796
  91.7227392  70.1988368  76.3630084  92.1714921  69.4698336  77.6116289
  96.9095494  69.5897807  87.1003111  96.8984134  69.1950605  86.2283615
  97.0716133  68.8563879  87.6936883  89.8326958  71.7849623  79.9698017
  90.6248250  71.4440448  79.5544316  90.0723609  71.8944598  80.8900170
  97.8662085  73.9569399  72.4428261  97.2150065  74.5423479  72.0562275
  98.6606448  74.4875594  72.5023299  91.7917712  71.0458536  72.8415396
  92.5648588  70.4987523  72.7028272  92.1443111  71.9102785  73.0529857
  93.6302755  72.3734918  86.0482295  93.3392621  73.2780549  85.9328961
  94.2659739  72.4151446  86.7626365  94.5558962  69.7511767  82.6383655
  95.1522534  69.5267789  81.9240618  94.6133933  69.0096512  83.2409103
  94.1283990  67.2051202  70.4733846  94.3809511  66.6832724  69.7117309
  93.1908549  67.0417348  70.5760529  99.1727273  66.2086981  78.2808589
  99.9590362  65.7906404  77.9299006  99.4365977  67.1133073  78.4490237
  99.3437350  71.6459831  72.9797246  98.7083183  71.7194457  73.6918150
  99.0134757  72.2353430  72.3016325 104.5735700  66.1462214  79.1841567
 105.3060872  65.5761431  79.4179397 103.8175056  65.7583814  79.6248073
  93.8480279  69.1079308  72.6758221  93.7316537  68.4324212  73.3439305
  93.9582539  68.6211682  71.8590374  96.1911820  68.5689455  76.3804910
  95.8270027  68.0420076  77.0917831  97.0478936  68.1787924  76.2071395
 102.0961120  59.8583788  83.6436176 101.7644445  60.7279199  83.4197391
 101.5006734  59.5420072  84.3230206  95.8317307  63.5979355  71.3766258
  95.9991709  64.4659591  71.7436729  95.6414476  63.7606637  70.4527548
  98.5892640  72.0596334  83.0432089  98.2893363  72.9621373  82.9347896
  98.2443699  71.7928517  83.8953242  92.0405121  68.5110131  79.0768793
  91.1155618  68.3786345  79.2846485  92.2889535  69.2904350  79.5738736
 101.9889784  64.5778874  80.7229526 101.0806661  64.5094283  80.4288287
 101.9377380  65.0550819  81.5511352  95.8106528  66.0537012  72.3612925
  95.6906153  66.4994063  73.1998405  95.1159116  66.4022330  71.8026463
  89.4013932  68.1543404  79.9112582  89.5306314  68.4077883  80.8251994
  88.7211384  68.7471112  79.5917237  93.5713420  78.8240654  76.0103056
  93.4937449  79.7748479  76.0891537  92.9675063  78.4786527  76.6677983
  96.0630650  65.9968520  88.6664423  95.2863984  66.5562440  88.6567288
  96.7021213  66.4825303  89.1879293 103.8551430  62.7795312  82.5007400
 103.2125810  63.0727846  81.8547195 103.3506359  62.6648233  83.3060597
 101.5091594  66.5258486  73.1893259 102.4209450  66.7585872  73.0140957
 101.0001241  67.1095530  72.6268338  94.3177022  68.8053973  88.2282390
  95.0591706  69.3439017  87.9517214  93.6114007  69.4320262  88.3853942
  99.7932361  70.9483114  86.8254552 100.2015717  70.5065524  86.0809184
  99.0709623  70.3735741  87.0788745  96.1463432  65.8855720  84.1988109
  96.9924627  66.3095134  84.3422758  96.0862069  65.2289345  84.8926672
 100.1161176  71.5084304  80.5806841  99.4870039  71.6730018  79.8782909
  99.7286838  71.9225914  81.3517805 103.9950408  72.4438742  77.9351204
 103.3101446  72.8237643  77.3848238 104.0794257  73.0534069  78.6683152
  99.2962877  63.5460089  85.8569282  99.0523809  64.3002149  85.3203558
  99.5722807  63.9245436  86.6916529 101.2501340  70.0898701  84.5346548
 101.4618235  70.7330461  83.8580929 101.2031088  69.2561018  84.0668478
  98.8527569  62.7016522  81.4383120  97.9912048  62.9997775  81.7299858
  98.8790003  62.9186921  80.5064153  95.6689138  71.2458712  77.8456926
  96.1327484  71.5246415  77.0561548  95.4045936  70.3442157  77.6630016
  92.5613219  70.7930194  80.7836689  93.1314576  71.2217462  80.1454174
  93.1521331  70.5112778  81.4820875  94.6058024  67.3681865  74.6546491
  95.3082067  67.8202908  75.1220417  94.2738653  66.7265683  75.2826384
  93.0538386  65.9593621  89.0297700  92.4237046  66.6409902  89.2633097
  92.9474473  65.8476703  88.0850839  88.3483358  65.6265417  79.9563624
  87.5582412  65.8822946  79.4803735  88.8394605  66.4413755  80.0615665
 102.3647168  72.9670656  82.7068905 103.1864611  72.5650844  82.4251587
 102.3609570  72.8638891  83.6585021  90.2998103  65.9909996  76.9147101
  89.5029267  66.1028691  77.4330597  90.0723696  66.3296649  76.0487992
  96.1303771  72.5154700  84.8629616  96.1948204  72.9775107  85.6987788
  95.4214695  71.8852065  84.9911926  86.6321061  65.8795908  82.3878615
  86.8829099  66.7642918  82.6536191  87.1680609  65.7000509  81.6153707
  95.8451789  74.1822807  74.7308596  95.7097463  75.0274343  75.1593444
  96.3861601  74.3842085  73.9674530  92.3319128  60.2614387  91.3922951
  91.9386074  59.7080586  92.0670596  93.1485269  60.5724966  91.7829469
  89.2981186  71.6998245  75.3036521  89.8105707  72.4941495  75.4542086
  89.9503899  71.0024536  75.2370123  91.1076071  74.8164002  77.3859274
  91.2842699  75.7381966  77.1980258  91.9032904  74.5022421  77.8153654
  95.2487089  61.6772266  88.9843208  95.9896803  62.2779419  88.9047670
  95.4805012  60.9349904  88.4261251  90.3928427  66.8628633  87.2621438
  90.2781942  65.9613891  87.5628537  89.5372945  67.1092330  86.9106254
  92.2307386  76.3342175  83.3869617  92.7814811  76.2059239  82.6146611
  91.3918862  76.6337064  83.0364510  96.0274557  72.5993303  87.7313848
  96.5602894  71.8381591  87.5013156  95.4988638  72.3066955  88.4738002
  99.1944252  57.7053369  83.2607490  98.8508522  58.5955011  83.1846600
  99.5623215  57.5155027  82.3977075  87.2630103  70.0286900  76.0796092
  88.1005325  70.4383908  75.8629799  87.4408371  69.0886342  76.0496286
  99.1594535  67.6961980  71.7679925  98.6441158  68.4666585  72.0068312
  98.8871843  67.0227116  72.3912986  96.7441646  62.5411681  76.8265163
  95.8883242  62.1518531  76.6470802  97.1568598  62.6203642  75.9664949
  98.2740793  60.0758024  81.2256723  97.7705588  60.0388159  80.4124528
  98.5671399  60.9850767  81.2853380  94.5183678  60.1596754  80.2322905
  95.3836675  59.9639563  79.8728794  94.5861187  59.9307106  81.1592261
 104.1328809  70.4494335  73.7033098 103.3558252  70.1105494  73.2588260
 104.8120290  70.4546958  73.0288063  98.9480838  65.5689072  73.5939706
  98.6430974  65.8835221  74.4449849  99.9011280  65.6470492  73.6367039
  97.3927270  71.7279296  75.2432660  96.8648632  70.9932055  74.9305897
  96.8914773  72.5053972  74.9972628 102.3720116  69.9228316  80.3599706
 101.7143790  70.6127577  80.4479835 103.1760515  70.3124748  80.7033693
  92.1245998  62.3898962  77.6039271  92.6989749  62.1674143  76.8712464
  92.7116980  62.4587656  78.3567873 101.1825575  68.2772689  78.4103648
 101.6957457  68.9102681  78.9125358 101.8326799  67.6773884  78.0447008
  92.4515585  64.4203423  71.6235157  91.6152897  64.7578109  71.9444431
  92.3120354  64.2852403  70.6862294  94.4268665  59.2640211  76.3314341
  93.7733078  58.9489228  75.7070956  94.3849139  58.6415951  77.0574164
  95.5379870  69.5459506  68.2467633  94.6306932  69.3148759  68.4458782
  96.0350902  68.7497125  68.4341614  98.4447949  78.2557013  71.1664319
  97.7709648  78.5588710  71.7749277  98.8313771  79.0586093  70.8169776
  97.6606406  65.7522144  80.6561988  96.7428967  65.9737091  80.4983677
  98.0766549  65.8268455  79.7973696  98.4441453  67.1513560  75.7864669
  99.1913272  67.6634957  75.4771791  98.7133043  66.8297613  76.6469062
  96.7168104  69.6472101  72.7691623  95.8079323  69.3631134  72.8664093
  96.7463187  70.0671179  71.9094930 101.9487371  73.2578690  76.5382791
 101.4949698  72.4169600  76.5947981 101.3181338  73.8940089  76.8757571
 100.8920291  64.1870676  77.7683458 100.1543047  63.6748062  78.0993701
 101.1447064  63.7471058  76.9566735 100.3920310  75.0955187  77.4732609
 100.6843285  75.6560244  76.7544974 100.9018931  75.3883748  78.2285768
 100.9931918  56.9646928  78.3625227 101.2990795  56.1044292  78.0751142
 101.7184523  57.5564548  78.1624221  87.2856274  67.3677615  76.7506825
  87.0880674  66.7746976  76.0257892  86.7302938  67.0629825  77.4682764
  95.2652998  67.2600721  78.8701418  95.3201607  66.3074558  78.7943895
  94.4544200  67.4160160  79.3542717  96.4144191  71.1880844  70.1079702
  95.9763621  70.4716703  69.6485339  97.1554632  71.4156959  69.5464793
  93.2045358  65.8777781  76.6291797  92.3913223  66.1771952  77.0356989
  93.7004352  65.4833470  77.3466279  95.3553935  75.8735538  78.5626062
  95.3130114  76.0996384  77.6334594  96.2716634  75.6398913  78.7111863
  98.8019569  66.3419606  85.4606691  99.1568957  66.5691079  86.3201157
  99.4491700  66.6737982  84.8383946 104.5317306  69.4638041  76.1656020
 104.3935205  69.6539637  75.2377209 104.1753525  70.2257424  76.6224071
  92.6959432  63.4496137  82.2453032  93.3358812  63.3084896  81.5475996
  91.8636963  63.1630650  81.8691634 104.5586686  71.5314568  81.1767292
 104.9923192  71.4389858  82.0250346 105.2718266  71.5072069  80.5387308
  93.4719736  72.7498567  78.3588025  94.2660335  72.2548887  78.1570600
  92.7611429  72.2216430  77.9955730  98.2914581  75.1316663  82.7100392
  98.3451603  75.7007599  83.4778108  97.4229362  75.3018548  82.3454429
  89.7802500  66.8941649  74.4347777  88.8500088  66.8326104  74.6517739
  89.8759972  66.3717602  73.6384419  89.6988049  63.4196462  77.0226019
  89.9594866  64.3341795  76.9135179  90.5205221  62.9520904  77.1722632
  91.1712974  64.8334219  84.1924844  91.8436027  64.6251581  83.5437492
  90.3442761  64.6356305  83.7530076 105.4202235  71.5738269  83.7100177
 105.6138125  72.4784080  83.9559452 105.3202853  71.1145688  84.5438762
  97.0738546  61.4596160  86.2090504  96.4266461  62.1586109  86.1154981
  97.8439561  61.8932304  86.5766753  97.2502680  69.2976925  84.2687324
  98.1794740  69.4488084  84.0956291  96.8293710  69.3860945  83.4135971
  96.0491012  73.3227589  82.0385862  95.9102098  72.9546373  82.9111800
  95.2605608  73.8375228  81.8669820  96.6439164  78.4236685  73.3811398
  96.8190920  77.9524729  74.1957021  95.9571952  79.0502452  73.6092659
  97.5996227  72.7009192  79.4274700  97.2646060  72.6609962  80.3232349
  97.1000173  72.0353908  78.9545110  91.5740471  68.1076822  84.9527281
  91.4360269  67.3757061  85.5538820  92.4845395  68.0185722  84.6711468
 100.5355419  70.0465226  69.7011759  99.9184590  69.3212054  69.6044812
 100.0671907  70.8074586  69.3578833  94.2022772  67.8196781  84.4410960
  94.9122391  67.1789973  84.3997579  94.1592080  68.0709676  85.3637141
  92.9151706  64.8061999  86.2606600  92.3789063  64.3552737  86.9128196
  92.3268414  64.9407908  85.5177064  91.2100249  81.5726048  80.1551258
  91.4496848  82.2044572  80.8330277  90.3669446  81.2214088  80.4416618
  92.3253965  64.2650650  68.8233063  91.4483431  64.1439451  68.4595310
  92.8011718  63.4736729  68.5711952 102.1926958  72.7203718  85.5931519
 101.3053737  72.3829640  85.7157918 102.7625509  71.9886750  85.8300285
  83.8456105  69.0527810  78.9174571  84.5327145  68.7389540  78.3295586
  83.6904234  69.9569175  78.6441822  88.6490827  63.9418007  83.3459594
  88.5649016  63.3343676  82.6110004  87.8273534  64.4327025  83.3469091
  95.7228111  77.3805171  82.5592762  95.6498283  78.1860142  83.0712067
  95.2805504  77.5797137  81.7340784  95.5117891  76.6176941  76.0695584
  94.7285413  77.1598621  76.1633808  96.2110636  77.1350920  76.4689825
  98.8214541  62.4271570  78.7129789  99.3183241  61.6741533  78.3930860
  98.0501523  62.4635887  78.1472999  98.1826795  77.2792005  84.7150921
  98.8954767  77.9139470  84.6426823  97.6916823  77.3755871  83.8990923
  99.9044322  71.1843257  76.2868213  98.9700600  71.3044720  76.1172917
 100.0820990  70.2815724  76.0228223  95.4049510  64.5688953  78.4401474
  95.0347297  64.0159994  79.1282380  95.9008602  63.9647087  77.8876474
 103.2916873  67.0260577  76.8218247 103.7577325  67.8588568  76.7478550
 103.7424374  66.5605558  77.5263505  93.2338708  75.0286448  85.5356492
  93.9348168  75.6622931  85.6885886  92.7633823  75.3701180  84.7752131
 101.3593104  73.3704398  73.8204399 101.6352948  73.2560993  74.7298273
 100.4897603  72.9721883  73.7816572 101.2633536  59.3941164  80.8609148
 100.3496616  59.6245391  81.0291355 101.6926637  59.4779608  81.7123181
 101.0339994  67.5831056  83.3609042 100.3811445  67.8306963  82.7061495
 101.4120374  66.7695194  83.0271520  97.9947168  77.6190749  77.4637213
  98.1769563  76.8012405  77.9264965  98.8180154  77.8358441  77.0262103
  98.3289334  76.5458934  74.7252261  98.8577100  76.0351389  74.1122423
  98.5917553  76.2301464  75.5897794  97.0827567  68.3250867  89.8475079
  96.4068204  68.2244996  90.5177455  97.9055201  68.1690080  90.3111077
  88.8306426  74.5622803  82.4687595  89.4159863  73.8166491  82.6015499
  88.6331265  74.8726760  83.3524258  91.6845082  77.5974051  77.4850037
  91.0155457  78.0820178  77.0014077  91.5457951  77.8443271  78.3993415
  83.4224081  67.1328403  81.1892038  83.4608181  66.5991994  81.9829156
  82.9164374  66.6063609  80.5703015  95.8250350  79.6317794  84.0832695
  96.3768658  79.7949416  84.8481781  96.1656544  80.2222232  83.4112720
  90.8014843  61.9792944  84.6854580  90.8656170  62.8407775  84.2731978
  90.7381964  61.3666946  83.9526939  90.2767116  64.0516076  88.3327614
  90.9039155  63.6693154  88.9465139  89.4195035  63.8330278  88.6983307
  87.0532659  65.8592506  74.2645969  87.3486100  64.9503184  74.2113023
  86.1520695  65.8380245  73.9426971  98.9618738  77.5799770  81.0696378
  98.8369877  76.7789510  80.5607323  99.6197829  78.0745963  80.5810347
  90.5826906  63.9348502  80.2473518  89.8613492  64.5484470  80.1080991
  91.3720162  64.4706267  80.1690164 101.0253646  75.3808790  82.6975928
 100.0783981  75.2614141  82.6254254 101.3736419  74.4931288  82.7802189
  93.3853219  61.2702929  86.5214169  93.9087621  61.5165225  87.2840479
  93.1665553  62.1022963  86.1017307  88.7820500  63.5406603  74.3885294
  88.4533206  62.6603982  74.2060400  89.1359871  63.4854272  75.2761684
  91.8962323  63.8279573  74.7560772  92.2358396  64.3565494  74.0339380
  92.3434444  64.1659979  75.5319338 101.6334201  75.9990065  79.9845153
 102.5580749  75.7932926  79.8469604 101.4649504  75.7506466  80.8934494
  94.5905764  62.2116624  84.2063840  94.2502585  61.4124437  84.6084520
  93.8844771  62.5118335  83.6340673  95.2422236  59.2965936  82.6591163
  96.0648305  58.8226414  82.5370053  95.4860300  60.0756420  83.1589849
  93.8830471  62.3254195  72.9554065  94.6038833  62.7035447  72.4517782
  93.2595775  63.0443071  73.0589043  98.0261594  63.0299344  73.8912397
  98.2425208  63.9123981  73.5901225  97.5455661  62.6385557  73.1618039
  92.7660815  65.9885057  80.4683142  92.6205396  66.3025360  81.3607423
  92.2886019  66.6069957  79.9154040  94.6257198  62.9787605  80.5164031
  94.6118767  62.0828698  80.1796329  95.3429626  62.9858269  81.1502317
  96.4783328  63.4124945  82.5617159  96.2201106  64.3342016  82.5601489
  95.9468369  63.0155380  83.2517623 101.4229517  76.5175732  75.3407244
 101.5966395  75.9522155  74.5881096 101.9158408  77.3176627  75.1586734
  87.2406477  68.5290401  83.4070803  86.6959945  69.3050209  83.5391077
  88.1185827  68.8761206  83.2489924  94.0294094  61.8601985  75.7851601
  94.1510005  60.9318631  75.9842489  93.7396136  61.8740671  74.8729917
  96.8985284  59.5456896  78.9218321  96.9206981  59.6096229  77.9670301
  97.3153343  58.7061404  79.1158827 102.4104690  75.8342497  72.4404142
 103.1055594  76.4549189  72.6591457 102.7527840  74.9837848  72.7156520
  88.0272499  67.6560298  86.3000960  87.2854235  67.8042933  86.8865590
  87.7065243  67.9168563  85.4367709 104.3096113  73.2842202  73.9691473
 104.8347437  73.6229475  73.2440793 104.2218465  72.3489217  73.7854608
  95.9936774  79.3514185  78.3286726  95.5541764  78.8590564  79.0219583
  96.7444891  78.8087153  78.0878801  88.4729113  75.5425726  78.3311354
  89.2987133  75.2429498  77.9509998  88.1223165  74.7733349  78.7801143
  93.4410646  74.8952194  80.4009028  92.8190655  74.2322899  80.1011256
  94.1115513  74.9213326  79.7182676  86.6737718  73.4612053  79.2900288
  85.8369626  73.0334227  79.1084289  86.6461363  73.6544496  80.2271079
  93.5135173  63.3733982  89.9941534  93.5623329  64.2496105  89.6119304
  94.0557687  62.8311376  89.4213177  93.0024153  73.4456118  73.8767488
  93.1512273  74.1291582  73.2234161  93.8090596  73.4261208  74.3916944
 101.4091656  66.7498500  87.9034706 102.3101519  66.6104965  87.6118704
 101.4839631  66.9152955  88.8432884  95.7434462  64.1265355  86.7487893
  94.8737771  64.4198921  86.4770481  95.9793942  64.7105800  87.4695156
 103.8693279  68.3097128  85.2997479 104.3447401  68.5024775  84.4916330
 102.9458844  68.3656314  85.0540863  90.7576786  69.4721295  74.8828557
  90.5122828  68.5683625  75.0808768  90.9272700  69.4738446  73.9408035
  98.4473496  60.3444972  84.2653313  98.9655439  61.0805999  83.9399802
  98.0928628  60.6508965  85.1000072  90.0272433  65.2049653  72.3814719
  89.3341678  65.2794008  71.7254755  89.7824185  64.4409997  72.9036236
  98.6986090  56.7645254  79.7854210  98.9787843  56.0968443  80.4114636
  99.4836697  56.9574350  79.2728873  96.5019558  75.9404248  71.3479236
  95.9293525  76.5594435  70.8949708  97.0752352  76.4903610  71.8819158
 102.5694948  65.1862888  83.5325785 103.5212371  65.2860986  83.5538009
 102.3998398  64.3941157  84.0423869 100.5909328  62.2718472  83.7185186
  99.9959260  62.5523484  83.0231674 100.3059024  62.7612372  84.4901927
  99.7216818  76.2241398  72.4787818 100.6547491  76.1586960  72.6820694
  99.6340031  77.0597665  72.0202351 102.3504835  75.5407269  69.4391766
 102.2718466  75.2067132  70.3327524 103.1714501  76.0329037  69.4383238
 105.0483026  68.4069008  82.6468084 105.0159346  67.4685009  82.8327768
 105.6583649  68.4853045  81.9133909  96.8866357  67.2765061  68.6895288
  97.8325461  67.1471269  68.7583706  96.5080602  66.5379723  69.1664717
 105.1977514  65.1980051  82.6926368 104.6816563  64.4138508  82.5056296
 106.0817463  64.8698768  82.8572887 102.8588241  58.9421067  78.6522180
 102.6613062  58.6336155  79.5365512 103.4687947  59.6682706  78.7820110
  95.0709274  65.2015037  68.6250174  94.1640729  64.9048150  68.7012887
  95.3485255  64.9044855  67.7584460  85.9887214  66.5221401  79.0749220
  85.6689999  65.6686709  78.7823594  85.4420642  66.7369979  79.8307187
  89.7667122  69.2383842  82.7918727  89.9853132  70.1700950  82.8106760
  90.1792896  68.8791816  83.5773530  96.6871340  59.7451927  74.7794415
  95.8772068  59.3999012  75.1549661  97.3755757  59.4359471  75.3682026
  98.6161888  58.8229974  76.4018712  99.1692926  59.2425427  77.0608735
  98.8531974  57.8965722  76.4441668  94.6394987  64.8117048  92.1821475
  94.5391714  65.7611405  92.1133567  94.4216529  64.4835286  91.3097546
  93.8408058  62.0601973  68.7662153  94.7027222  62.3856871  69.0257970
  94.0258403  61.2733469  68.2535219  85.8575474  70.1424312  81.0442342
  85.1638946  69.7278265  80.5312296  86.6048465  70.1844849  80.4475760
 101.9940695  60.9330499  75.9097376 101.4139364  61.5915303  75.5275428
 101.7276628  60.1107844  75.4984793 100.4444261  60.3335557  78.1118696
 100.9444040  60.4452091  77.3033015 101.0879869  60.0296610  78.7519505
  94.5026257  68.2414186  90.9986537  94.0193339  69.0414547  91.2050426
  94.5887196  68.2522131  90.0453981  87.7712217  70.0742566  78.9208356
  87.7482905  70.1730253  77.9690240  88.0812853  70.9207717  79.2425523
  90.4299595  72.1318721  83.0354971  91.3842848  72.1002663  82.9684902
  90.2312118  71.6709345  83.8505197  91.0198977  70.7019837  85.6025769
  91.8391866  71.1963916  85.6260606  91.2935784  69.7851805  85.5743336
 100.7765573  63.0930589  74.9653724  99.8891428  63.3780240  74.7473919
 101.1919562  62.9324353  74.1181001 104.1280109  63.1177110  78.6808063
 104.9040499  63.6073563  78.9532680 103.4028243  63.5435165  79.1379933
  88.7849823  77.6738341  80.0525169  88.6504291  76.9138741  79.4863167
  88.3681886  78.3979240  79.5853958  99.9208786  72.8575264  69.0601744
 100.6244637  73.0625267  69.6759400  99.1971435  73.4252026  69.3250828
 100.7506597  68.6085125  75.1804014 100.6941798  69.0653677  74.3411647
 101.3034939  67.8475810  75.0026857 104.5611403  64.3974857  76.0054134
 104.3048337  63.9971493  76.8362341 103.9364271  65.1118651  75.8804273
  91.9418949  78.5707658  80.2643611  91.8251333  79.5153090  80.1622302
  91.1211396  78.2681219  80.6529411 101.8295484  73.2957793  71.1100204
 102.6641088  72.8638992  70.9277679 101.6679827  73.1239807  72.0377099
 101.4841376  69.7989907  72.4756543 101.4290180  69.6334178  71.5344988
 100.8587431  70.5065940  72.6318733  86.2733891  65.0357971  86.3017966
  86.9192755  64.5256925  86.7905191  86.0651042  65.7726653  86.8761391
  94.7937501  59.2998016  72.0541862  94.7816171  60.2439856  72.2110133
  95.6860923  59.1168161  71.7601323  92.9673463  79.2235919  83.4799540
  93.8700710  79.2559530  83.7966035  92.7410833  78.2936370  83.4945876
  94.7227065  77.9766906  80.1409618  93.7722696  77.9768768  80.0273991
  95.0259552  77.2299641  79.6245653  98.6089621  55.8940792  76.3087799
  97.8422017  55.3399279  76.4544481  99.0200326  55.9662661  77.1701950
  90.6131382  62.1825588  90.3992980  91.4762844  61.8262393  90.6096304
  90.0396793  61.8439483  91.0868384 103.1256281  85.6190349  77.1313796
 102.5621146  85.5280286  76.3630084 103.0108676  84.7990253  77.6116289
 102.6311467  86.3750454  72.8415396 103.4042343  85.8279441  72.7028272
 102.9836866  87.2394703  73.0529857 104.9677745  82.5343120  70.4733846
 105.2203265  82.0124641  69.7117309 104.0302304  82.3709265  70.5760529
 104.6874033  84.4371226  72.6758221 104.5710291  83.7616129  73.3439305
 104.7976293  83.9503600  71.8590374 100.2407687  83.4835322  79.9112582
 100.3700068  83.7369801  80.8251994  99.5605138  84.0763030  79.5917237
  99.1877112  80.9557335  79.9563624  98.3976166  81.2114863  79.4803735
  99.6788360  81.7705673  80.0615665 101.1391858  81.3201914  76.9147101
 100.3423021  81.4320608  77.4330597 100.9117450  81.6588566  76.0487992
  97.4714815  81.2087825  82.3878615  97.7222854  82.0934835  82.6536191
  98.0074364  81.0292427  81.6153707 100.1374941  87.0290163  75.3036521
 100.6499461  87.8233413  75.4542086 100.7897653  86.3316453  75.2370123
  98.1023857  85.3578817  76.0796092  98.9399079  85.7675826  75.8629799
  98.2802125  84.4178259  76.0496286 102.9639752  77.7190880  77.6039271
 103.5383504  77.4966061  76.8712464 103.5510735  77.7879574  78.3567873
 103.2909339  79.7495341  71.6235157 102.4546651  80.0870027  71.9444431
 103.1514109  79.6144320  70.6862294 105.2662420  74.5932128  76.3314341
 104.6126832  74.2781146  75.7070956 105.2242894  73.9707869  77.0574164
  98.1250028  82.6969533  76.7506825  97.9274428  82.1038893  76.0257892
  97.5696692  82.3921743  77.4682764 104.0439112  81.2069699  76.6291797
 103.2306978  81.5063869  77.0356989 104.5398106  80.8125388  77.3466279
 103.5353187  78.7788054  82.2453032 104.1752566  78.6376813  81.5475996
 102.7030717  78.4922568  81.8691634 100.6196254  82.2233566  74.4347777
  99.6893842  82.1618022  74.6517739 100.7153726  81.7009519  73.6384419
 100.5381803  78.7488379  77.0226019 100.7988621  79.6633713  76.9135179
 101.3598976  78.2812822  77.1722632 103.1647719  79.5942568  68.8233063
 102.2877186  79.4731369  68.4595310 103.6405472  78.8028646  68.5711952
  94.6849860  84.3819728  78.9174571  95.3720899  84.0681458  78.3295586
  94.5297988  85.2861092  78.6441822  99.4884582  79.2709924  83.3459594
  99.4042770  78.6635594  82.6110004  98.6667288  79.7618943  83.3469091
  94.2617836  82.4620321  81.1892038  94.3001935  81.9283912  81.9829156
  93.7558128  81.9355527  80.5703015  97.8926413  81.1884423  74.2645969
  98.1879854  80.2795102  74.2113023  96.9914449  81.1672163  73.9426971
 101.4220660  79.2640420  80.2473518 100.7007246  79.8776388  80.1080991
 102.2113916  79.7998185  80.1690164  99.6214255  78.8698521  74.3885294
  99.2926961  77.9895900  74.2060400  99.9753626  78.8146190  75.2761684
 102.7356078  79.1571491  74.7560772 103.0752150  79.6857412  74.0339380
 103.1828198  79.4951897  75.5319338 104.7224225  77.6546112  72.9554065
 105.4432588  78.0327365  72.4517782 104.0989529  78.3734989  73.0589043
 104.8687848  77.1893903  75.7851601 104.9903759  76.2610549  75.9842489
 104.5789891  77.2032589  74.8729917 103.8417907  88.7748035  73.8767488
 103.9906028  89.4583500  73.2234161 104.6484351  88.7553126  74.3916944
 101.5970540  84.8013213  74.8828557 101.3516582  83.8975543  75.0808768
 101.7666455  84.8030364  73.9408035 100.8666188  80.5341571  72.3814719
 100.1735433  80.6085926  71.7254755 100.6217940  79.7701914  72.9036236
  96.8280969  81.8513318  79.0749220  96.5083753  80.9978627  78.7823594
  96.2814397  82.0661897  79.8307187 104.6801813  77.3893890  68.7662153
 105.5420977  77.7148789  69.0257970 104.8652157  76.6025386  68.2535219
  96.6969229  85.4716230  81.0442342  96.0032700  85.0570183  80.5312296
  97.4442220  85.5136766  80.4475760  98.6105971  85.4034484  78.9208356
  98.5876659  85.5022171  77.9690240  98.9206608  86.2499635  79.2425523
  47.8525233  -2.7379500  66.8796565  48.0921831  -2.1060976  67.5575584
  47.0094429  -3.0891460  67.1661924  59.7681264   1.3084801  63.8559103
  59.2046129   1.2174738  63.0875391  59.6533659   0.4884705  64.3361596
  57.3145696   2.8035992  66.6943324  58.1066988   2.4626817  66.2789623
  57.5542346   2.9130967  67.6145477  65.3480823   4.9755769  59.1673568
  64.6968803   5.5609849  58.7807582  66.1425186   5.5061963  59.2268605
  59.2736450   2.0644906  59.5660702  60.0467326   1.5173893  59.4273578
  59.6261849   2.9289155  59.7775164  61.1121493   3.3921288  72.7727602
  60.8211359   4.2966919  72.6574268  61.7478477   3.4337816  73.4871671
  66.8256088   2.6646200  59.7042552  66.1901921   2.7380827  60.4163457
  66.4953494   3.2539799  59.0261632  66.0711378   3.0782703  69.7677395
  65.7712101   3.9807742  69.6593203  65.7262437   2.8114887  70.6198548
  59.5223859  -0.4703500  65.8014100  58.5974356  -0.6027286  66.0091792
  59.7708272   0.3090720  66.2984042  56.8832670  -0.8270226  66.6357889
  57.0125051  -0.5735747  67.5497301  56.2030122  -0.2342518  66.3162544
  61.0532158   9.8427024  62.7348363  60.9756187  10.7934849  62.8136844
  60.4493801   9.4972896  63.3923289  67.5979914   2.5270674  67.3052147
  66.9688776   2.6916388  66.6028215  67.2105576   2.9412283  68.0763111
  63.1507876   2.2645082  64.5702232  63.6146221   2.5432785  63.7806855
  62.8864674   1.3628526  64.3875323  60.0431957   1.8116563  67.5081996
  60.6133314   2.2403832  66.8699480  60.6340069   1.5299148  68.2066181
  69.8465905   3.9857026  69.4314212  70.6683349   3.5837213  69.1496894
  69.8428308   3.8825260  70.3830328  63.6122509   3.5341069  71.5874922
  63.6766941   3.9961477  72.4233094  62.9033433   2.9038434  71.7157232
  63.3270526   5.2009177  61.4553903  63.1916201   6.0460713  61.8838751
  63.8680339   5.4028454  60.6919837  56.7799924   2.7184615  62.0281828
  57.2924444   3.5127865  62.1787393  57.4322637   2.0210905  61.9615429
  58.5894809   5.8350371  64.1104581  58.7661437   6.7568336  63.9225565
  59.3851642   5.5208790  64.5398961  64.9539003   5.8232743  75.5854245
  64.5102857   5.0369122  75.2675149  65.6156216   6.0111894  74.9198136
  59.7126124   7.3528545  70.1114923  60.2633549   7.2245608  69.3391917
  58.8737600   7.6523434  69.7609816  67.0520241   6.1035543  73.6135646
  67.0338716   6.9244424  73.1215915  67.9740161   5.9789618  73.8385787
  63.5093295   3.6179673  74.4559155  64.0421632   2.8567961  74.2258462
  62.9807376   3.3253325  75.1983309  54.7448841   1.0473269  62.8041398
  55.5824063   1.4570277  62.5875106  54.9227108   0.1072711  62.7741592
  64.8746008   2.7465665  61.9677967  64.3467369   2.0118425  61.6551204
  64.3733510   3.5240342  61.7217935  65.9266687   9.2743383  57.8909626
  65.2528386   9.5775079  58.4994584  66.3132509  10.0772463  57.5415083
  69.4306109   4.2765060  63.2628097  68.9768436   3.4355970  63.3193288
  68.8000075   4.9126458  63.6002877  67.8739048   6.1141556  64.1977915
  68.1662022   6.6746614  63.4790281  68.3837669   6.4070117  64.9531074
  54.7675012  -1.6136016  63.4752132  54.5699412  -2.2066655  62.7503198
  54.2121676  -1.9183805  64.1928071  63.8962929   2.2067214  56.8325008
  63.4582359   1.4903073  56.3730646  64.6373370   2.4343329  56.2710100
  62.8372673   6.8921908  65.2871369  62.7948852   7.1182754  64.3579901
  63.7535372   6.6585282  65.4357170  60.9538474   3.7684937  65.0833331
  61.7479072   3.2735257  64.8815906  60.2430166   3.2402800  64.7201037
  65.7733318   6.1503032  69.4345699  65.8270341   6.7193968  70.2023415
  64.9048100   6.3204917  69.0699736  67.9636082   2.7431381  76.0086364
  67.8121588   2.5141933  75.0916448  67.9540761   3.7001983  76.0217709
  63.5309750   4.3413959  68.7631168  63.3920836   3.9732743  69.6357106
  62.7424346   4.8561598  68.5915126  64.1257902   9.4423055  60.1056705
  64.3009658   8.9711098  60.9202328  63.4390690  10.0688821  60.3337966
  65.0814965   3.7195561  66.1520006  64.7464798   3.6796331  67.0477656
  64.5818911   3.0540277  65.6790416  69.6728288   5.7750504  74.0862846
  69.6140835   5.0909724  73.4193429  70.0747807   6.5169494  73.6343472
  58.6918987  12.5912418  66.8796565  58.9315585  13.2230942  67.5575584
  57.8488184  12.2400458  67.1661924  51.3274843   0.0714180  65.6419877
  52.0145883  -0.2424090  65.0540893  51.1722972   0.9755544  65.3687129
  63.2046849   8.3991540  69.2838069  63.1317021   9.2046512  69.7957374
  62.7624242   8.5983506  68.4586090  62.9936629   7.6363310  62.7940891
  62.2104151   8.1784990  62.8879115  63.6929374   8.1537290  63.1935132
  65.6645533   8.2978374  71.4396228  66.3773505   8.9325839  71.3672129
  65.1735561   8.3942240  70.6236230  60.7157446   6.0472818  72.2601799
  61.4166906   6.6809301  72.4131193  60.2452561   6.3887549  71.4997438
  68.8411842   4.3890768  60.5449706  69.1171686   4.2747362  61.4543580
  67.9716341   3.9908252  60.5061879  65.4765906   8.6377118  64.1882519
  65.6588301   7.8198774  64.6510272  66.2998892   8.8544811  63.7507409
  65.8108072   7.5645304  61.4497568  66.3395838   7.0537758  60.8367730
  66.0736291   7.2487834  62.3143101  56.3125164   5.5809173  69.1932901
  56.8978601   4.8352861  69.3260805  56.1150003   5.8913130  70.0769565
  59.1663819   8.6160420  64.2095344  58.4974195   9.1006548  63.7259384
  59.0276689   8.8629641  65.1238722  50.9042819  -1.8485227  67.9137344
  50.9426918  -2.3821636  68.7074462  50.3983112  -2.3750021  67.2948322
  63.3069088  10.6504164  70.8078002  63.8587396  10.8135785  71.5727087
  63.6475281  11.2408602  70.1358027  68.1579962   5.4765421  76.6626656
  68.7019866   6.0895379  76.1681611  67.5766807   6.0345000  77.1793669
  66.4437475   8.5986139  67.7941684  66.3188615   7.7975879  67.2852630
  67.1016566   9.0932333  67.3055654  68.5072384   6.3995159  69.4221234
  67.5602719   6.2800511  69.3499561  68.8555157   5.5117657  69.5047496
  65.5118817   6.1947876  65.6225586  65.3643779   5.2664583  65.8033156
  66.3372310   6.2167966  65.1382662  69.1152939   7.0176434  66.7090459
  70.0399486   6.8119296  66.5714910  68.9468242   6.7692835  67.6179801
  68.9048255   7.5362102  62.0652551  69.0785133   6.9708524  61.3126403
  69.3977146   8.3362997  61.8832041  54.7225215  -0.4523229  70.1316109
  54.1778683   0.3236579  70.2636384  55.6004565  -0.1052425  69.9735231
  69.8923428   6.8528866  59.1649449  70.5874332   7.4735559  59.3836764
  70.2346578   6.0024217  59.4401827  55.5091237  -1.3253333  73.0246266
  54.7672973  -1.1770698  73.6110897  55.1883981  -1.0645067  72.1613016
  63.4534899   8.2162645  72.8226656  63.7622026   7.9711792  73.6949356
  64.2510381   8.4209284  72.3345527  63.4755511  10.3700555  65.0532033
  63.0360502   9.8776934  65.7464890  64.2263628   9.8273523  64.8124108
  55.9547850   6.5612096  65.0556661  56.7805870   6.2615868  64.6755304
  55.6041902   5.7919718  65.5046450  60.9229384   5.9138564  67.1254335
  60.3009393   5.2509269  66.8256562  61.5934250   5.9399696  66.4427982
  54.1556455   4.4798422  66.0145595  53.3188364   4.0520597  65.8329596
  54.1280101   4.6730866  66.9516386  71.4808757   4.9361475  75.9987978
  70.6904300   4.9185614  75.4592477  71.2442111   5.4749769  76.7537014
  60.4842890   4.4642487  60.6012795  60.6331011   5.1477952  59.9479468
  61.2909334   4.4447577  61.1162251  58.2395523   0.4907665  61.6073864
  57.9941565  -0.4130005  61.8054074  58.4091438   0.4924815  60.6653342
  63.9838296   6.9590618  58.0724543  63.4112263   7.5780805  57.6195014
  64.5571090   7.5089980  58.6064464  67.2035556   7.2427768  59.2033125
  68.1366229   7.1773330  59.4066000  67.1158769   8.0784035  58.7447657
  69.8323572   6.5593638  56.1637072  69.7537204   6.2253502  57.0572830
  70.6533239   7.0515406  56.1628545  64.2523787   2.3469177  76.8741252
  65.1726796   2.5247776  77.0681299  64.2173370   1.4025222  76.7220951
  57.2485860   0.2570211  69.5164033  57.4671869   1.1887319  69.5352067
  57.6611633  -0.1021814  70.3018837  53.3394212   1.1610682  67.7687648
  52.6457683   0.7464635  67.2557603  54.0867203   1.2031218  67.1721067
  55.2530955   1.0928936  65.6453663  55.2301643   1.1916623  64.6935546
  55.5631591   1.9394086  65.9670829  57.9118332   3.1505091  69.7600278
  58.8661586   3.1189033  69.6930209  57.7130856   2.6895714  70.5750503
  58.5017715   1.7206207  72.3271075  59.3210604   2.2150285  72.3505912
  58.7754522   0.8038175  72.2988643  56.2668561   8.6924710  66.7770475
  56.1323029   7.9325111  66.2108473  55.8500623   9.4165610  66.3099264
  67.4027524   3.8761634  55.7847051  68.1063374   4.0811636  56.4004706
  66.6790173   4.4438396  56.0496134  59.4237687   9.5894027  66.9888918
  59.3070071  10.5339460  66.8867608  58.6030133   9.2867589  67.3774717
  69.3114222   4.3144163  57.8345511  70.1459826   3.8825361  57.6522986
  69.1498565   4.1426177  58.7622405  66.2806021   3.1225188  78.5255413
  67.1497181   3.2965840  78.1642048  65.8012772   3.9419605  78.4031142
  60.4492201  10.2422289  70.2044846  61.3519448  10.2745899  70.5211341
  60.2229571   9.3122740  70.2191182  62.2045803   8.9953276  66.8654925
  61.2541434   8.9955137  66.7519297  62.5078289   8.2486010  66.3490960
  77.9398497  14.8313814  67.9300687  78.5776907  14.7120561  67.2264028
  77.8219340  15.7794658  67.9888640  74.7488203  14.7841242  67.8662212
  74.4106715  14.6682307  66.9782747  75.6177971  14.3832407  67.8463218
  70.6075019  16.6376719  63.8559103  70.0439884  16.5466655  63.0875391
  70.4927414  15.8176623  64.3361596  75.2307986  15.9376094  73.8248418
  75.2196627  15.5428892  72.9528921  75.3928625  15.2042166  74.4182189
  68.1539451  18.1327910  66.6943324  68.9460743  17.7918735  66.2789623
  68.3936101  18.2422885  67.6145477  76.1874577  20.3047686  59.1673568
  75.5362557  20.8901767  58.7807582  76.9818940  20.8353881  59.2268605
  70.1130205  17.3936823  59.5660702  70.8861081  16.8465810  59.4273578
  70.4655603  18.2581073  59.7775164  71.9515247  18.7213206  72.7727602
  71.6605113  19.6258836  72.6574268  72.5872231  18.7629733  73.4871671
  72.8771454  16.0990054  69.3628961  73.4735026  15.8746077  68.6485924
  72.9346426  15.3574800  69.9654409  72.4496482  13.5529489  57.1979152
  72.7022003  13.0311011  56.4362615  71.5121041  13.3895635  57.3005836
  77.4939765  12.5565268  65.0053896  78.2802854  12.1384691  64.6544313
  77.7578470  13.4611360  65.1735544  77.6649843  17.9938118  59.7042552
  77.0295676  18.0672745  60.4163457  77.3347249  18.5831717  59.0261632
  82.8948192  12.4940501  65.9086874  83.6273364  11.9239718  66.1424704
  82.1387548  12.1062101  66.3493380  72.1692771  15.4557595  59.4003527
  72.0529029  14.7802499  60.0684612  72.2795031  14.9689969  58.5835680
  74.5124312  14.9167743  63.1050216  74.1482519  14.3898364  63.8163138
  75.3691428  14.5266212  62.9316702  74.1529799   9.9457642  58.1011565
  74.3204201  10.8137879  58.4682036  73.9626968  10.1084924  57.1772854
  76.9105132  18.4074621  69.7677395  76.6105855  19.3099660  69.6593203
  76.5656192  18.1406804  70.6198548  70.3617614  14.8588418  65.8014100
  69.4368110  14.7264632  66.0091792  70.6102027  15.6382637  66.2984042
  80.3102276  10.9257161  67.4474833  79.4019153  10.8572570  67.1533594
  80.2589872  11.4029106  68.2756658  74.1319020  12.4015300  59.0858232
  74.0118645  12.8472351  59.9243712  73.4371608  12.7500617  58.5271770
  67.7226425  14.5021692  66.6357889  67.8518806  14.7556170  67.5497301
  67.0423876  15.0949400  66.3162544  71.8925912  25.1718941  62.7348363
  71.8149942  26.1226767  62.8136844  71.2887556  24.8264814  63.3923289
  74.3843142  12.3446807  75.3909730  73.6076476  12.9040727  75.3812595
  75.0233705  12.8303590  75.9124600  82.1763922   9.1273600  69.2252707
  81.5338303   9.4206133  68.5792501  81.6718851   9.0126520  70.0305903
  79.8304086  12.8736773  59.9138566  80.7421942  13.1064160  59.7386263
  79.3213733  13.4573817  59.3513644  72.6389514  15.1532260  74.9527697
  73.3804198  15.6917304  74.6762521  71.9326500  15.7798549  75.1099249
  78.1144854  17.2961401  73.5499858  78.5228210  16.8543811  72.8054491
  77.3922115  16.7214028  73.8034051  74.4675924  12.2334008  70.9233415
  75.3137119  12.6573421  71.0668064  74.4074561  11.5767632  71.6171979
  78.4373668  17.8562591  67.3052147  77.8082531  18.0208306  66.6028215
  78.0499330  18.2704201  68.0763111  82.3162900  18.7917029  64.6596511
  81.6313938  19.1715931  64.1093544  82.4006750  19.4012356  65.3928459
  77.6175369   9.8938376  72.5814589  77.3736301  10.6480436  72.0448865
  77.8935300  10.2723723  73.4161836  79.5713832  16.4376988  71.2591855
  79.7830727  17.0808748  70.5826236  79.5243580  15.6039305  70.7913785
  77.1740061   9.0494809  68.1628427  76.3124540   9.3476062  68.4545164
  77.2002495   9.2665208  67.2309459  73.9901630  17.5936999  64.5702232
  74.4539976  17.8724702  63.7806855  73.7258428  16.6920444  64.3875323
  70.8825711  17.1408481  67.5081996  71.4527068  17.5695749  66.8699480
  71.4733823  16.8591066  68.2066181  72.9270516  13.7160152  61.3791798
  73.6294560  14.1681195  61.8465724  72.5951145  13.0743971  62.0071691
  71.3750878  12.3071908  75.7543007  70.7449538  12.9888189  75.9878404
  71.2686966  12.1954990  74.8096145  66.6695850  11.9743704  66.6808931
  65.8794904  12.2301233  66.2049042  67.1607098  12.7892042  66.7860972
  80.6859660  19.3148944  69.4314212  81.5077104  18.9129131  69.1496894
  80.6822063  19.2117178  70.3830328  68.6210596  12.3388284  63.6392408
  67.8241759  12.4506978  64.1575904  68.3936188  12.6774936  62.7733298
  74.4516263  18.8632987  71.5874922  74.5160696  19.3253394  72.4233094
  73.7427187  18.2330352  71.7157232  64.9533553  12.2274195  69.1123922
  65.2041592  13.1121205  69.3781498  65.4893102  12.0478796  68.3399014
  88.7765653  15.6587692  65.7799183  88.0229361  15.0895090  65.6243188
  88.9113194  15.6250357  66.7269818  74.1664281  20.5301094  61.4553903
  74.0309956  21.3752630  61.8838751  74.7074093  20.7320372  60.6919837
  70.6531621   6.6092674  78.1168258  70.2598566   6.0558873  78.7915902
  71.4697761   6.9203253  78.5074776  67.6193678  18.0476532  62.0281828
  68.1318199  18.8419783  62.1787393  68.2716391  17.3502823  61.9615429
  69.4288563  21.1642289  64.1104581  69.6055191  22.0860253  63.9225565
  70.2245397  20.8500708  64.5398961  73.5699582   8.0250553  75.7088515
  74.3109295   8.6257707  75.6292977  73.8017504   7.2828191  75.1506557
  68.7140920  13.2106921  73.9866744  68.5994435  12.3092178  74.2873843
  67.8585437  13.4570617  73.6351561  75.7932757  21.1524661  75.5854245
  75.3496611  20.3661040  75.2675149  76.4549971  21.3403811  74.9198136
  70.5519878  22.6820463  70.1114923  71.1027304  22.5537526  69.3391917
  69.7131354  22.9815352  69.7609816  77.8913995  21.4327461  73.6135646
  77.8732471  22.2536342  73.1215915  78.8133915  21.3081536  73.8385787
  74.3487050  18.9471590  74.4559155  74.8815386  18.1859879  74.2258462
  73.8201131  18.6545242  75.1983309  65.5842595  16.3765187  62.8041398
  66.4217817  16.7862195  62.5875106  65.7620863  15.4364629  62.7741592
  77.4807027  14.0440267  58.4925231  76.9653651  14.8144872  58.7313619
  77.2084336  13.3705404  59.1158293  75.0654138   8.8889968  63.5510470
  74.2095735   8.4996819  63.3716108  75.4781090   8.9681929  62.6910255
  76.5953285   6.4236311  67.9502029  76.0918080   6.3866447  67.1369835
  76.8883892   7.3329054  68.0098686  72.8396171   6.5075041  66.9568211
  73.7049168   6.3117850  66.5974101  72.9073680   6.2785393  67.8837568
  82.4541301  16.7972622  60.4278405  81.6770744  16.4583782  59.9833567
  83.1332782  16.8025245  59.7533370  77.2693330  11.9167360  60.3185013
  76.9643466  12.2313509  61.1695156  78.2223773  11.9948779  60.3612346
  75.7139762  18.0757583  61.9677967  75.1861124  17.3410342  61.6551204
  75.2127265  18.8532259  61.7217935  80.6932608  16.2706603  67.0845013
  80.0356283  16.9605865  67.1725141  81.4973007  16.6603035  67.4278999
  70.4458490   8.7377249  64.3284578  71.0202242   8.5152431  63.5957771
  71.0329472   8.8065944  65.0813179  79.5038067  14.6250976  65.1348955
  80.0169949  15.2580968  65.6370664  80.1539291  14.0252172  64.7692315
  70.7728077  10.7681710  58.3480463  69.9365389  11.1056397  58.6689738
  70.6332847  10.6330690  57.4107600  72.7481158   5.6118498  63.0559647
  72.0945570   5.2967515  62.4316262  72.7061632   4.9894238  63.7819470
  73.8592362  15.8937793  54.9712940  72.9519424  15.6627047  55.1704089
  74.3563394  15.0975412  55.1586921  76.7660441  24.6035300  57.8909626
  76.0922140  24.9066997  58.4994584  77.1526263  25.4064381  57.5415083
  75.9818898  12.1000432  67.3807295  75.0641459  12.3215379  67.2228983
  76.3979042  12.1746742  66.5219002  76.7653946  13.4991847  62.5109975
  77.5125765  14.0113244  62.2017097  77.0345535  13.1775900  63.3714369
  75.0380596  15.9950388  59.4936930  74.1291815  15.7109421  59.5909399
  75.0675680  16.4149467  58.6340236  80.2699863  19.6056977  63.2628097
  79.8162190  18.7647887  63.3193288  79.6393830  20.2418376  63.6002877
  79.2132783  10.5348964  64.4928765  78.4755540  10.0226350  64.8239007
  79.4659556  10.0949345  63.6812042  78.7132803  21.4433474  64.1977915
  79.0055777  22.0038531  63.4790281  79.2231423  21.7362035  64.9531074
  65.6068766  13.7155902  63.4752132  65.4093166  13.1225263  62.7503198
  65.0515430  13.4108112  64.1928071  73.5865490  13.6079009  65.5946725
  73.6414100  12.6552845  65.5189202  72.7756692  13.7638448  66.0788023
  74.7356684  17.5359132  56.8325008  74.2976114  16.8194991  56.3730646
  75.4767125  17.7635246  56.2710100  71.5257850  12.2256068  63.3537104
  70.7125715  12.5250239  63.7602296  72.0216844  11.8311757  64.0711586
  73.6766428  22.2213825  65.2871369  73.6342607  22.4474672  64.3579901
  74.5929127  21.9877200  65.4357170  77.1232062  12.6897893  72.1851998
  77.4781449  12.9169366  73.0446464  77.7704193  13.0216270  71.5629253
  82.8529798  15.8116329  62.8901327  82.7147697  16.0017925  61.9622516
  82.4966017  16.5735712  63.3469378  71.0171925   9.7974424  68.9698339
  71.6571304   9.6563183  68.2721302  70.1849455   9.5108937  68.5936941
  82.8799178  17.8792856  67.9012598  83.3135685  17.7868145  68.7495652
  83.5930759  17.8550356  67.2632614  71.7932228  19.0976854  65.0833331
  72.5872827  18.6027174  64.8815906  71.0823921  18.5694717  64.7201037
  76.6127073  21.4794950  69.4345699  76.6664095  22.0485886  70.2023415
  75.7441854  21.6496835  69.0699736  68.1014992  13.2419936  61.1593084
  67.1712580  13.1804391  61.3763046  68.1972464  12.7195889  60.3629725
  68.0200541   9.7674749  63.7471326  68.2807358  10.6820082  63.6380486
  68.8417713   9.2999191  63.8967938  69.4925466  11.1812506  70.9170150
  70.1648520  10.9729868  70.2682799  68.6655253  10.9834592  70.4775382
  83.7414728  17.9216556  70.4345484  83.9350618  18.8262367  70.6804759
  83.6415346  17.4623975  71.2684069  75.3951038   7.8074447  72.9335811
  74.7478953   8.5064397  72.8400287  76.1652054   8.2410591  73.3012059
  78.8029836  18.0723299  76.0086364  78.6515343  17.8433851  75.0916448
  78.7934516  19.0293901  76.0217709  75.5715173  15.6455212  70.9932631
  76.5007233  15.7966371  70.8201598  75.1506203  15.7339233  70.1381277
  74.3703504  19.6705876  68.7631168  74.2314590  19.3024661  69.6357106
  73.5818101  20.1853516  68.5915126  74.9651656  24.7714973  60.1056705
  75.1403412  24.3003016  60.9202328  74.2784444  25.3980739  60.3337966
  75.9208720  19.0487479  66.1520006  75.5858552  19.0088249  67.0477656
  75.4212665  18.3832195  65.6790416  69.8952964  14.4555109  71.6772587
  69.7572762  13.7235348  72.2784126  70.8057887  14.3664009  71.3956775
  78.8567911  16.3943513  56.4257066  78.2397082  15.6690341  56.3290118
  78.3884400  17.1552874  56.0824140  72.5235264  14.1675068  71.1656267
  73.2334883  13.5268261  71.1242885  72.4804572  14.4187963  72.0882448
  80.5122043  21.1042422  74.0862846  80.4534589  20.4201642  73.4193429
  80.9141561  21.8461412  73.6343472  71.2364198  11.1540286  72.9851906
  70.7001555  10.7031025  73.6373503  70.6480907  11.2886195  72.2422371
  70.6466457  10.6128938  55.5478370  69.7695924  10.4917738  55.1840617
  71.1224210   9.8215016  55.2957259  80.5139450  19.0682006  72.3176826
  79.6266229  18.7307927  72.4403225  81.0838001  18.3365037  72.5545591
  62.1668597  15.4006097  65.6419877  62.8539637  15.0867827  65.0540893
  62.0116726  16.3047462  65.3687129  66.9703319  10.2896294  70.0704901
  66.8861508   9.6821963  69.3355311  66.1486026  10.7805312  70.0714397
  74.0440604  23.7283458  69.2838069  73.9710775  24.5338429  69.7957374
  73.6017997  23.9275424  68.4586090  73.8330383  22.9655228  62.7940891
  73.0497905  23.5076908  62.8879115  74.5323128  23.4829208  63.1935132
  77.1427033   8.7749857  65.4375096  77.6395733   8.0219820  65.1176166
  76.3714015   8.8114174  64.8718305  84.9956791  14.4790223  67.0793387
  84.9846667  15.3614938  66.7087321  84.1274170  14.1261774  66.8847925
  76.5039287  23.6270292  71.4396228  77.2167259  24.2617757  71.3672129
  76.0129316  23.7234158  70.6236230  78.2256814  17.5321545  63.0113519
  77.2913093  17.6523007  62.8418224  78.4033482  16.6294011  62.7473529
  73.7262002  10.9167240  65.1646781  73.3559790  10.3638281  65.8527686
  74.2221095  10.3125374  64.6121781  81.6129365  13.3738864  63.5463554
  82.0789818  14.2066856  63.4723856  82.0636866  12.9083845  64.2508812
  71.5551201  21.3764735  72.2601799  72.2560660  22.0101218  72.4131193
  71.0846316  21.7179467  71.4997438  79.6805596  19.7182685  60.5449706
  79.9565440  19.6039280  61.4543580  78.8110095  19.3200170  60.5061879
  79.3552487  13.9309343  70.0854349  78.7023937  14.1785250  69.4306802
  79.7332867  13.1173481  69.7516826  76.3159660  23.9669036  64.1882519
  76.4982055  23.1490692  64.6510272  77.1392647  24.1836728  63.7507409
  76.6501826  22.8937221  61.4497568  77.1789592  22.3829676  60.8367730
  76.9130046  22.5779751  62.3143101  75.4040060  14.6729154  76.5720386
  74.7280697  14.5723283  77.2422761  76.2267694  14.5168368  77.0356383
  67.1518919  20.9101090  69.1932901  67.7372356  20.1644778  69.3260805
  66.9543757  21.2205047  70.0769565  70.0057574  23.9452338  64.2095344
  69.3367949  24.4298465  63.7259384  69.8670444  24.1921558  65.1238722
  61.7436573  13.4806691  67.9137344  61.7820673  12.9470281  68.7074462
  61.2376866  12.9541896  67.2948322  74.1462843  25.9796081  70.8078002
  74.6981151  26.1427703  71.5727087  74.4869036  26.5700519  70.1358027
  69.1227336   8.3271231  71.4099887  69.1868662   9.1886062  70.9977284
  69.0594456   7.7145233  70.6772245  68.5979608  10.3994364  75.0572921
  69.2251647  10.0171441  75.6710445  67.7407527  10.1808566  75.4228613
  78.9973717  20.8057339  76.6626656  79.5413621  21.4187297  76.1681611
  78.4160562  21.3636917  77.1793669  65.3745151  12.2070793  60.9891276
  65.6698592  11.2981471  60.9358329  64.4733187  12.1858532  60.6672278
  77.2831230  23.9278057  67.7941684  77.1582369  23.1267797  67.2852630
  77.9410321  24.4224250  67.3055654  68.9039398  10.2826789  66.9718824
  68.1825984  10.8962757  66.8326298  69.6932654  10.8184554  66.8935470
  79.3466138  21.7287077  69.4221234  78.3996474  21.6092428  69.3499561
  79.6948911  20.8409575  69.5047496  71.7065712   7.6181216  73.2459476
  72.2300113   7.8643512  74.0085785  71.4878045   8.4501251  72.8262613
  67.1032993   9.8884890  61.1130601  66.7745699   9.0082269  60.9305707
  67.4572363   9.8332559  62.0006990  76.3512571  21.5239793  65.6225586
  76.2037534  20.5956501  65.8033156  77.1766065  21.5459884  65.1382662
  70.2174816  10.1757860  61.4806079  70.5570888  10.7043782  60.7584687
  70.6646936  10.5138266  62.2564645  79.9546693  22.3468352  66.7090459
  80.8793241  22.1411213  66.5714910  79.7861997  22.0984753  67.6179801
  72.9118257   8.5594911  70.9309147  72.5715077   7.7602724  71.3329827
  72.2057263   8.8596622  70.3585980  73.5634728   5.6444223  69.3836470
  74.3860798   5.1704702  69.2615360  73.8072792   6.4234707  69.8835156
  72.2042963   8.6732482  59.6799371  72.9251325   9.0513735  59.1763088
  71.5808267   9.3921359  59.7834349  76.3474086   9.3777631  60.6157704
  76.5637700  10.2602269  60.3146532  75.8668153   8.9863844  59.8863346
  71.0873307  12.3363344  67.1928448  70.9417888  12.6503647  68.0852730
  70.6098511  12.9548244  66.6399347  72.9469690   9.3265892  67.2409338
  72.9331259   8.4306985  66.9041636  73.6642118   9.3336556  67.8747624
  74.7995821   9.7603232  69.2862465  74.5413599  10.6820303  69.2846796
  74.2680861   9.3633667  69.9762929  79.7442010  22.8654019  62.0652551
  79.9178887  22.3000442  61.3126403  80.2370901  23.6654914  61.8832041
  65.5618969  14.8768688  70.1316109  65.0172437  15.6528496  70.2636384
  66.4398319  15.2239493  69.9735231  72.3506586   8.2080272  62.5096908
  72.4722497   7.2796919  62.7087795  72.0608628   8.2218958  61.5975223
  85.5981401  15.6290442  63.6842850  86.0412547  14.8797768  63.2861974
  84.7207911  15.6200579  63.3016582  80.7317182  22.1820784  59.1649449
  81.4268087  22.8027476  59.3836764  81.0740332  21.3316135  59.4401827
  66.3484991  14.0038585  73.0246266  65.6066727  14.1521220  73.6110897
  66.0277735  14.2646850  72.1613016  82.6308605  19.6320489  60.6936780
  83.1559929  19.9707762  59.9686100  82.5430958  18.6967505  60.5099914
  74.2928654  23.5454563  72.8226656  74.6015780  23.3003710  73.6949356
  75.0904136  23.7501201  72.3345527  74.3149266  25.6992473  65.0532033
  73.8754256  25.2068851  65.7464890  75.0657383  25.1565440  64.8124108
  66.7941605  21.8904013  65.0556661  67.6199625  21.5907785  64.6755304
  66.4435657  21.1211636  65.5046450  71.7623138  21.2430482  67.1254335
  71.1403147  20.5801187  66.8256562  72.4328005  21.2691614  66.4427982
  64.9950210  19.8090340  66.0145595  64.1582118  19.3812514  65.8329596
  64.9673855  20.0022783  66.9516386  71.8347666   9.7212270  76.7186841
  71.8835821  10.5974393  76.3364610  72.3770180   9.1789663  76.1458484
  82.3202511  20.2653393  75.9987978  81.5298055  20.2477532  75.4592477
  82.0835866  20.8041687  76.7537014  82.4400386  17.1145859  73.3120706
  82.4898391  16.9495867  74.2536229  82.3314310  16.2473118  72.9218587
  71.3236645  19.7934405  60.6012795  71.4724765  20.4769869  59.9479468
  72.1303088  19.7739495  61.1162251  79.7304149  13.0976787  74.6280013
  80.6314011  12.9583252  74.3364011  79.8052123  13.2631242  75.5678190
  74.0646954  10.4743642  73.4733199  73.1950263  10.7677208  73.2015788
  74.3006434  11.0584087  74.1940463  83.9418583  19.5342801  73.5562728
  83.6503391  19.8972781  74.3926189  83.3290714  18.8209809  73.3776060
  85.1414265  17.0995681  66.0765298  85.9761157  17.5385485  66.2402858
  85.2773394  16.6234334  65.2573544  82.1905771  14.6575415  72.0242786
  82.6659893  14.8503062  71.2161637  81.2671337  14.7134601  71.7786169
  69.0789278  15.8199583  61.6073864  68.8335320  14.9161913  61.8054074
  69.2485192  15.8216733  60.6653342  76.7685988   6.6923259  70.9898620
  77.2867932   7.4284286  70.6645108  76.4141121   6.9987252  71.8245379
  68.3484925  11.5527940  59.1060025  67.6554170  11.6272295  58.4500061
  68.1036677  10.7888284  59.6281542  74.8232050  22.2882535  58.0724543
  74.2506018  22.9072723  57.6195014  75.3964844  22.8381897  58.6064464
  80.8907440  11.5341176  70.2571091  81.8424863  11.6339273  70.2783315
  80.7210891  10.7419444  70.7669176  78.9121820   8.6196759  70.4430492
  78.3171752   8.9001772  69.7476981  78.6271516   9.1090660  71.2147233
  78.0429310  22.5719686  59.2033125  78.9759983  22.5065247  59.4066000
  77.9552523  23.4075952  58.7447657  80.6717327  21.8885556  56.1637072
  80.5930958  21.5545420  57.0572830  81.4926994  22.3807324  56.1628545
  75.2078849  13.6243348  55.4140595  76.1537954  13.4949556  55.4829013
  74.8293094  12.8858010  55.8910023  83.5190007  11.5458339  69.4171674
  83.0029055  10.7616795  69.2301603  84.4029955  11.2177055  69.5818194
  89.1872068  15.8163302  68.5119428  89.9175456  15.5548590  69.0727131
  88.5779013  15.0792024  68.5521496  87.2687365  13.9571165  69.1093879
  86.5420529  13.8227130  68.5010371  86.8534652  14.2647993  69.9150597
  75.0917542  17.6761094  76.8741252  76.0120551  17.8539693  77.0681299
  75.0567125  16.7317140  76.7220951  73.3921766  11.5493325  55.3495480
  72.4853222  11.2526437  55.4258194  73.6697747  11.2523143  54.4829766
  64.3099707  12.8699688  65.7994527  63.9902491  12.0164996  65.5068901
  63.7633135  13.0848266  66.5552494  68.0879614  15.5862129  69.5164033
  68.3065624  16.5179237  69.5352067  68.5005388  15.2270103  70.3018837
  75.0083832   6.0930214  61.5039722  74.1984560   5.7477299  61.8794968
  75.6968249   5.7837758  62.0927333  72.9607479  11.1595335  78.9066782
  72.8604206  12.1089692  78.8378873  72.7429021  10.8313574  78.0342852
  72.1620551   8.4080260  55.4907459  73.0239715   8.7335158  55.7503277
  72.3470895   7.6211756  54.9780525  64.1787967  16.4902600  67.7687648
  63.4851438  16.0756552  67.2557603  64.9260958  16.5323136  67.1721067
  72.8238749  14.5892474  77.7231844  72.3405831  15.3892834  77.9295733
  72.9099688  14.6000418  76.7699288  66.0924709  16.4220853  65.6453663
  66.0695397  16.5208541  64.6935546  66.4025346  17.2686004  65.9670829
  68.7512087  18.4797008  69.7600278  69.7055340  18.4480951  69.6930209
  68.5524610  18.0187632  70.5750503  69.3411469  17.0498124  72.3271075
  70.1604358  17.5442203  72.3505912  69.6148277  16.1330093  72.2988643
  79.0978065   9.4408877  61.6899031  78.2103920   9.7258527  61.4719225
  79.5132054   9.2802640  60.8426308  82.4492601   9.4655398  65.4053370
  83.2252991   9.9551850  65.6777987  81.7240736   9.8913452  65.8625239
  84.8865160  10.1783017  66.4627311  85.4809651   9.9378753  65.7520619
  84.9591744   9.4590147  67.0900847  67.1062316  24.0216628  66.7770475
  66.9716784  23.2617029  66.2108473  66.6894378  24.7457528  66.3099264
  78.2421279  19.2053551  55.7847051  78.9457129  19.4103554  56.4004706
  77.5183927  19.7730313  56.0496134  79.0719089  14.9563413  61.9049321
  79.0154290  15.4131964  61.0656953  79.6247431  14.1954097  61.7272164
  82.8823895  10.7453144  62.7299440  82.6260829  10.3449780  63.5607648
  82.2576763  11.4596938  62.6049580  87.1936233  13.4849218  65.2370732
  86.6335791  13.5542407  66.0102294  86.5879736  13.3090202  64.5170228
  70.2631442  24.9185945  66.9888918  70.1463826  25.8631377  66.8867608
  69.4423888  24.6159506  67.3774717  80.1507976  19.6436081  57.8345511
  80.9853580  19.2117279  57.6522986  79.9892319  19.4718094  58.7622405
  79.8053868  16.1468194  59.2001850  79.7502672  15.9812465  58.2590294
  79.1799924  16.8544227  59.3564040  64.5946383  11.3836258  73.0263272
  65.2405247  10.8735212  73.5150497  64.3863534  12.1204940  73.6006697
  77.1199775  18.4517106  78.5255413  77.9890935  18.6257758  78.1642048
  76.6406527  19.2711523  78.4031142  73.1149994   5.6476303  58.7787168
  73.1028664   6.5918143  58.9355439  74.0073416   5.4646448  58.4846630
  71.2885956  25.5714207  70.2044846  72.1913202  25.6037817  70.5211341
  71.0623326  24.6414658  70.2191182  73.0439558  24.3245193  66.8654925
  72.0935189  24.3247055  66.7519297  73.3472044  23.5777928  66.3490960
  68.9343874   8.5303875  77.1238286  69.7975336   8.1740680  77.3341611
  68.3609285   8.1917770  77.8113691  88.7792251  30.1605732  67.9300687
  89.4170661  30.0412479  67.2264028  88.6613094  31.1086576  67.9888640
  85.5881957  30.1133160  67.8662212  85.2500469  29.9974224  66.9782747
  86.4571726  29.7124325  67.8463218  81.4468773  31.9668636  63.8559103
  80.8833638  31.8758573  63.0875391  81.3321168  31.1468541  64.3361596
  86.0701740  31.2668012  73.8248418  86.0590381  30.8720810  72.9528921
  86.2322380  30.5334084  74.4182189  78.9933205  33.4619828  66.6943324
  79.7854497  33.1210652  66.2789623  79.2329855  33.5714803  67.6145477
  87.0268332  35.6339604  59.1673568  86.3756312  36.2193684  58.7807582
  87.8212695  36.1645799  59.2268605  80.9523959  32.7228741  59.5660702
  81.7254835  32.1757728  59.4273578  81.3049358  33.5872990  59.7775164
  82.7909002  34.0505123  72.7727602  82.4998868  34.9550754  72.6574268
  83.4265986  34.0921651  73.4871671  83.7165208  31.4281972  69.3628961
  84.3128781  31.2037994  68.6485924  83.7740180  30.6866717  69.9654409
  83.2890237  28.8821407  57.1979152  83.5415758  28.3602928  56.4362615
  82.3514796  28.7187553  57.3005836  88.3333520  27.8857186  65.0053896
  89.1196609  27.4676609  64.6544313  88.5972224  28.7903278  65.1735544
  88.5043597  33.3230036  59.7042552  87.8689430  33.3964662  60.4163457
  88.1741003  33.9123635  59.0261632  93.7341947  27.8232419  65.9086874
  94.4667119  27.2531636  66.1424704  92.9781303  27.4354019  66.3493380
  83.0086526  30.7849513  59.4003527  82.8922784  30.1094416  60.0684612
  83.1188786  30.2981887  58.5835680  85.3518067  30.2459660  63.1050216
  84.9876274  29.7190281  63.8163138  86.2085182  29.8558129  62.9316702
  91.2567367  21.5353993  70.3681483  90.9250692  22.4049404  70.1442698
  90.6612981  21.2190277  71.0475513  84.9923554  25.2749560  58.1011565
  85.1597956  26.1429796  58.4682036  84.8020723  25.4376842  57.1772854
  87.7498887  33.7366539  69.7677395  87.4499610  34.6391578  69.6593203
  87.4049946  33.4698722  70.6198548  81.2011368  30.1880336  65.8014100
  80.2761865  30.0556550  66.0091792  81.4495781  30.9674555  66.2984042
  91.1496031  26.2549079  67.4474833  90.2412908  26.1864487  67.1533594
  91.0983626  26.7321024  68.2756658  84.9712774  27.7307217  59.0858232
  84.8512400  28.1764268  59.9243712  84.2765363  28.0792535  58.5271770
  78.5620179  29.8313609  66.6357889  78.6912560  30.0848088  67.5497301
  77.8817631  30.4241317  66.3162544  82.7319667  40.5010859  62.7348363
  82.6543696  41.4518684  62.8136844  82.1281310  40.1556732  63.3923289
  85.2236896  27.6738725  75.3909730  84.4470230  28.2332645  75.3812595
  85.8627459  28.1595508  75.9124600  93.0157677  24.4565517  69.2252707
  92.3732057  24.7498051  68.5792501  92.5112605  24.3418438  70.0305903
  90.6697841  28.2028691  59.9138566  91.5815697  28.4356077  59.7386263
  90.1607488  28.7865735  59.3513644  83.4783269  30.4824178  74.9527697
  84.2197953  31.0209222  74.6762521  82.7720254  31.1090467  75.1099249
  88.9538608  32.6253318  73.5499858  89.3621964  32.1835729  72.8054491
  88.2315870  32.0505946  73.8034051  85.3069678  27.5625925  70.9233415
  86.1530873  27.9865339  71.0668064  85.2468316  26.9059550  71.6171979
  89.2767423  33.1854509  67.3052147  88.6476285  33.3500223  66.6028215
  88.8893085  33.5996119  68.0763111  93.1556655  34.1208947  64.6596511
  92.4707693  34.5007848  64.1093544  93.2400504  34.7304274  65.3928459
  88.4569124  25.2230294  72.5814589  88.2130055  25.9772354  72.0448865
  88.7329054  25.6015641  73.4161836  90.4107586  31.7668906  71.2591855
  90.6224482  32.4100666  70.5826236  90.3637335  30.9331222  70.7913785
  88.0133815  24.3786727  68.1628427  87.1518294  24.6767980  68.4545164
  88.0396250  24.5957125  67.2309459  84.8295385  32.9228917  64.5702232
  85.2933730  33.2016620  63.7806855  84.5652183  32.0212362  64.3875323
  81.7219466  32.4700399  67.5081996  82.2920823  32.8987667  66.8699480
  82.3127578  32.1882983  68.2066181  83.7664271  29.0452070  61.3791798
  84.4688314  29.4973113  61.8465724  83.4344899  28.4035888  62.0071691
  82.2144632  27.6363826  75.7543007  81.5843293  28.3180107  75.9878404
  82.1080720  27.5246908  74.8096145  77.5089605  27.3035622  66.6808931
  76.7188659  27.5593151  66.2049042  78.0000852  28.1183960  66.7860972
  91.5253414  34.6440861  69.4314212  92.3470858  34.2421049  69.1496894
  91.5215817  34.5409096  70.3830328  79.4604350  27.6680201  63.6392408
  78.6635513  27.7798896  64.1575904  79.2329942  28.0066854  62.7733298
  85.2910018  34.1924905  71.5874922  85.3554450  34.6545312  72.4233094
  84.5820942  33.5622270  71.7157232  75.7927308  27.5566113  69.1123922
  76.0435346  28.4413123  69.3781498  76.3286856  27.3770714  68.3399014
  99.6159407  30.9879610  65.7799183  98.8623116  30.4187008  65.6243188
  99.7506949  30.9542274  66.7269818  85.0058035  35.8593012  61.4553903
  84.8703710  36.7044548  61.8838751  85.5467848  36.0612290  60.6919837
  81.4925375  21.9384592  78.1168258  81.0992321  21.3850791  78.7915902
  82.3091515  22.2495170  78.5074776  78.4587433  33.3768450  62.0281828
  78.9711953  34.1711700  62.1787393  79.1110146  32.6794741  61.9615429
  80.2682318  36.4934206  64.1104581  80.4448946  37.4152171  63.9225565
  81.0639151  36.1792626  64.5398961  84.4093336  23.3542471  75.7088515
  85.1503049  23.9549624  75.6292977  84.6411259  22.6120109  75.1506557
  79.5534674  28.5398838  73.9866744  79.4388189  27.6384096  74.2873843
  78.6979192  28.7862535  73.6351561  86.6326512  36.4816579  75.5854245
  86.1890366  35.6952957  75.2675149  87.2943725  36.6695729  74.9198136
  81.3913633  38.0112380  70.1114923  81.9421058  37.8829444  69.3391917
  80.5525109  38.3107269  69.7609816  88.7307750  36.7619379  73.6135646
  88.7126225  37.5828260  73.1215915  89.6527670  36.6373454  73.8385787
  85.1880804  34.2763508  74.4559155  85.7209141  33.5151796  74.2258462
  84.6594885  33.9837160  75.1983309  88.3550499  19.3823574  69.9852796
  88.0114768  20.2725216  69.9091907  88.7229462  19.1925232  69.1222381
  76.4236350  31.7057104  62.8041398  77.2611572  32.1154113  62.5875106
  76.6014617  30.7656547  62.7741592  88.3200782  29.3732185  58.4925231
  87.8047405  30.1436790  58.7313619  88.0478090  28.6997321  59.1158293
  85.9047893  24.2181886  63.5510470  85.0489489  23.8288736  63.3716108
  86.3174845  24.2973847  62.6910255  87.4347039  21.7528229  67.9502029
  86.9311835  21.7158364  67.1369835  87.7277646  22.6620972  68.0098686
  83.6789925  21.8366959  66.9568211  84.5442922  21.6409768  66.5974101
  83.7467434  21.6077311  67.8837568  93.2935056  32.1264540  60.4278405
  92.5164499  31.7875699  59.9833567  93.9726537  32.1317163  59.7533370
  88.1087085  27.2459277  60.3185013  87.8037220  27.5605426  61.1695156
  89.0617527  27.3240697  60.3612346  86.5533517  33.4049501  61.9677967
  86.0254878  32.6702260  61.6551204  86.0521019  34.1824177  61.7217935
  91.5326363  31.5998521  67.0845013  90.8750037  32.2897782  67.1725141
  92.3366762  31.9894953  67.4278999  81.2852244  24.0669167  64.3284578
  81.8595996  23.8444348  63.5957771  81.8723227  24.1357861  65.0813179
  90.3431822  29.9542894  65.1348955  90.8563703  30.5872886  65.6370664
  90.9933045  29.3544089  64.7692315  81.6121831  26.0973628  58.3480463
  80.7759144  26.4348314  58.6689738  81.4726601  25.9622608  57.4107600
  83.5874912  20.9410416  63.0559647  82.9339324  20.6259433  62.4316262
  83.5455386  20.3186156  63.7819470  84.6986117  31.2229711  54.9712940
  83.7913179  30.9918964  55.1704089  85.1957149  30.4267330  55.1586921
  87.6054196  39.9327218  57.8909626  86.9315895  40.2358915  58.4994584
  87.9920018  40.7356298  57.5415083  86.8212652  27.4292349  67.3807295
  85.9035214  27.6507296  67.2228983  87.2372796  27.5038660  66.5219002
  87.6047700  28.8283765  62.5109975  88.3519519  29.3405162  62.2017097
  87.8739290  28.5067818  63.3714369  85.8774350  31.3242306  59.4936930
  84.9685570  31.0401338  59.5909399  85.9069434  31.7441384  58.6340236
  91.1093618  34.9348895  63.2628097  90.6555945  34.0939805  63.3193288
  90.4787584  35.5710294  63.6002877  90.0526537  25.8640881  64.4928765
  89.3149294  25.3518267  64.8239007  90.3053311  25.4241263  63.6812042
  89.5526557  36.7725392  64.1977915  89.8449531  37.3330449  63.4790281
  90.0625178  37.0653953  64.9531074  90.1538165  18.6417133  65.0870534
  90.4597041  17.7814497  64.7996449  90.8790769  19.2334753  64.8869528
  76.4462521  29.0447820  63.4752132  76.2486921  28.4517180  62.7503198
  75.8909185  28.7400030  64.1928071  84.4259244  28.9370926  65.5946725
  84.4807854  27.9844763  65.5189202  83.6150446  29.0930365  66.0788023
  85.5750438  32.8651049  56.8325008  85.1369868  32.1486908  56.3730646
  86.3160879  33.0927164  56.2710100  82.3651604  27.5547986  63.3537104
  81.5519470  27.8542157  63.7602296  82.8610598  27.1603675  64.0711586
  84.5160182  37.5505743  65.2871369  84.4736361  37.7766589  64.3579901
  85.4322881  37.3169118  65.4357170  87.9625816  28.0189810  72.1851998
  88.3175204  28.2461284  73.0446464  88.6097947  28.3508187  71.5629253
  93.6923553  31.1408246  62.8901327  93.5541452  31.3309842  61.9622516
  93.3359772  31.9027629  63.3469378  81.8565679  25.1266342  68.9698339
  82.4965058  24.9855101  68.2721302  81.0243210  24.8400855  68.5936941
  93.7192933  33.2084773  67.9012598  94.1529439  33.1160062  68.7495652
  94.4324513  33.1842274  67.2632614  82.6325983  34.4268772  65.0833331
  83.4266581  33.9319092  64.8815906  81.9217675  33.8986635  64.7201037
  87.4520827  36.8086867  69.4345699  87.5057850  37.3777804  70.2023415
  86.5835609  36.9788753  69.0699736  78.9408746  28.5711854  61.1593084
  78.0106335  28.5096309  61.3763046  79.0366218  28.0487806  60.3629725
  78.8594295  25.0966667  63.7471326  79.1201113  26.0112000  63.6380486
  79.6811468  24.6291109  63.8967938  80.3319221  26.5104424  70.9170150
  81.0042274  26.3021786  70.2682799  79.5049007  26.3126510  70.4775382
  94.5808482  33.2508474  70.4345484  94.7744372  34.1554285  70.6804759
  94.4809100  32.7915893  71.2684069  86.2344793  23.1366365  72.9335811
  85.5872708  23.8356314  72.8400287  87.0045808  23.5702509  73.3012059
  89.6423591  33.4015217  76.0086364  89.4909097  33.1725768  75.0916448
  89.6328270  34.3585818  76.0217709  86.4108927  30.9747130  70.9932631
  87.3400987  31.1258289  70.8201598  85.9899957  31.0631150  70.1381277
  85.2097259  34.9997794  68.7631168  85.0708345  34.6316578  69.6357106
  84.4211855  35.5145433  68.5915126  85.8045411  40.1006890  60.1056705
  85.9797167  39.6294934  60.9202328  85.1178199  40.7272657  60.3337966
  86.7602474  34.3779397  66.1520006  86.4252307  34.3380167  67.0477656
  86.2606420  33.7124113  65.6790416  80.7346718  29.7847027  71.6772587
  80.5966516  29.0527265  72.2784126  81.6451642  29.6955927  71.3956775
  89.6961666  31.7235431  56.4257066  89.0790836  30.9982259  56.3290118
  89.2278154  32.4844791  56.0824140  83.3629019  29.4966986  71.1656267
  84.0728637  28.8560178  71.1242885  83.3198327  29.7479881  72.0882448
  91.3515797  36.4334339  74.0862846  91.2928344  35.7493559  73.4193429
  91.7535316  37.1753329  73.6343472  82.0757953  26.4832204  72.9851906
  81.5395310  26.0322942  73.6373503  81.4874661  26.6178113  72.2422371
  80.3706496  43.2496253  66.8796565  80.6103094  43.8814777  67.5575584
  79.5275693  42.8984293  67.1661924  81.4860212  25.9420855  55.5478370
  80.6089678  25.8209656  55.1840617  81.9617965  25.1506934  55.2957259
  91.3533205  34.3973923  72.3176826  90.4659983  34.0599845  72.4403225
  91.9231756  33.6656954  72.5545591  73.0062352  30.7298015  65.6419877
  73.6933392  30.4159745  65.0540893  72.8510480  31.6339380  65.3687129
  77.8097074  25.6188212  70.0704901  77.7255263  25.0113881  69.3355311
  76.9879780  26.1097230  70.0714397  84.8834358  39.0575376  69.2838069
  84.8104530  39.8630347  69.7957374  84.4411751  39.2567341  68.4586090
  84.6724138  38.2947146  62.7940891  83.8891660  38.8368826  62.8879115
  85.3716883  38.8121125  63.1935132  87.9820788  24.1041775  65.4375096
  88.4789487  23.3511737  65.1176166  87.2107769  24.1406092  64.8718305
  95.8350545  29.8082141  67.0793387  95.8240421  30.6906856  66.7087321
  94.9667925  29.4553691  66.8847925  87.3433042  38.9562210  71.4396228
  88.0561014  39.5909674  71.3672129  86.8523070  39.0526076  70.6236230
  89.0650569  32.8613462  63.0113519  88.1306847  32.9814925  62.8418224
  89.2427237  31.9585929  62.7473529  84.5655757  26.2459158  65.1646781
  84.1953544  25.6930198  65.8527686  85.0614849  25.6417292  64.6121781
  92.4523120  28.7030782  63.5463554  92.9183572  29.5358773  63.4723856
  92.9030620  28.2375763  64.2508812  82.3944955  36.7056653  72.2601799
  83.0954415  37.3393136  72.4131193  81.9240070  37.0471385  71.4997438
  90.5199351  35.0474603  60.5449706  90.7959195  34.9331197  61.4543580
  89.6503850  34.6492088  60.5061879  90.4239783  21.0711369  67.5854455
  89.5102862  21.3015595  67.7536662  90.8532884  21.1549813  68.4368487
  90.1946241  29.2601261  70.0854349  89.5417691  29.5077168  69.4306802
  90.5726621  28.4465399  69.7516826  87.1553415  39.2960954  64.1882519
  87.3375810  38.4782610  64.6510272  87.9786401  39.5128646  63.7507409
  87.4895580  38.2229139  61.4497568  88.0183347  37.7121593  60.8367730
  87.7523800  37.9071669  62.3143101  86.2433814  30.0021072  76.5720386
  85.5674451  29.9015201  77.2422761  87.0661448  29.8460285  77.0356383
  77.9912673  36.2393008  69.1932901  78.5766110  35.4936696  69.3260805
  77.7937512  36.5496965  70.0769565  80.8451328  39.2744256  64.2095344
  80.1761704  39.7590383  63.7259384  80.7064198  39.5213476  65.1238722
  72.5830328  28.8098608  67.9137344  72.6214427  28.2762199  68.7074462
  72.0770621  28.2833814  67.2948322  84.9856597  41.3087999  70.8078002
  85.5374905  41.4719621  71.5727087  85.3262790  41.8992437  70.1358027
  79.9621090  23.6563149  71.4099887  80.0262417  24.5177980  70.9977284
  79.8988210  23.0437151  70.6772245  79.4373363  25.7286281  75.0572921
  80.0645402  25.3463359  75.6710445  78.5801282  25.5100483  75.4228613
  89.8367471  36.1349257  76.6626656  90.3807375  36.7479215  76.1681611
  89.2554316  36.6928835  77.1793669  76.2138906  27.5362711  60.9891276
  76.5092347  26.6273389  60.9358329  75.3126941  27.5150450  60.6672278
  88.1224984  39.2569975  67.7941684  87.9976124  38.4559714  67.2852630
  88.7804075  39.7516168  67.3055654  79.7433153  25.6118707  66.9718824
  79.0219738  26.2254675  66.8326298  80.5326408  26.1476472  66.8935470
  90.1859893  37.0578995  69.4221234  89.2390228  36.9384346  69.3499561
  90.5342666  36.1701493  69.5047496  82.5459466  22.9473134  73.2459476
  83.0693868  23.1935430  74.0085785  82.3271799  23.7793168  72.8262613
  77.9426747  25.2176808  61.1130601  77.6139453  24.3374187  60.9305707
  78.2966118  25.1624477  62.0006990  87.1906326  36.8531711  65.6225586
  87.0431288  35.9248418  65.8033156  88.0159819  36.8751802  65.1382662
  81.0568570  25.5049778  61.4806079  81.3964643  26.0335699  60.7584687
  81.5040691  25.8430184  62.2564645  90.7940448  37.6760270  66.7090459
  91.7186995  37.4703131  66.5714910  90.6255751  37.4276671  67.6179801
  83.7512011  23.8886829  70.9309147  83.4108831  23.0894642  71.3329827
  83.0451017  24.1888540  70.3585980  84.4028483  20.9736141  69.3836470
  85.2254552  20.4996619  69.2615360  84.6466546  21.7526625  69.8835156
  83.0436717  24.0024400  59.6799371  83.7645080  24.3805652  59.1763088
  82.4202022  24.7213276  59.7834349  87.1867840  24.7069549  60.6157704
  87.4031455  25.5894186  60.3146532  86.7061907  24.3155762  59.8863346
  81.9267062  27.6655262  67.1928448  81.7811642  27.9795565  68.0852730
  81.4492265  28.2840162  66.6399347  83.7863445  24.6557810  67.2409338
  83.7725013  23.7598903  66.9041636  84.5035873  24.6628473  67.8747624
  85.6389575  25.0895150  69.2862465  85.3807353  26.0112221  69.2846796
  85.1074616  24.6925584  69.9762929  90.5835764  38.1945937  62.0652551
  90.7572642  37.6292360  61.3126403  91.0764655  38.9946832  61.8832041
  76.4012724  30.2060606  70.1316109  75.8566192  30.9820414  70.2636384
  77.2792074  30.5531411  69.9735231  83.1900340  23.5372190  62.5096908
  83.3116252  22.6088836  62.7087795  82.9002383  23.5510876  61.5975223
  86.0591531  21.2227100  65.6463628  86.0813228  21.2866434  64.6915607
  86.4759590  20.3831609  65.8404134  96.4375155  30.9582360  63.6842850
  96.8806301  30.2089685  63.2861974  95.5601665  30.9492496  63.3016582
  91.5710937  37.5112701  59.1649449  92.2661841  38.1319394  59.3836764
  91.9134087  36.6608053  59.4401827  77.1878746  29.3330502  73.0246266
  76.4460482  29.4813138  73.6110897  76.8671490  29.5938768  72.1613016
  93.4702360  34.9612407  60.6936780  93.9953684  35.2999680  59.9686100
  93.3824712  34.0259422  60.5099914  85.1322408  38.8746481  72.8226656
  85.4409535  38.6295627  73.6949356  85.9297890  39.0793119  72.3345527
  85.1543020  41.0284390  65.0532033  84.7148011  40.5360769  65.7464890
  85.9051137  40.4857358  64.8124108  77.6335359  37.2195931  65.0556661
  78.4593379  36.9199703  64.6755304  77.2829411  36.4503554  65.5046450
  82.6016893  36.5722399  67.1254335  81.9796902  35.9093104  66.8256562
  83.2721759  36.5983531  66.4427982  75.8343964  35.1382258  66.0145595
  74.9975873  34.7104432  65.8329596  75.8067610  35.3314701  66.9516386
  82.6741420  25.0504187  76.7186841  82.7229575  25.9266310  76.3364610
  83.2163934  24.5081580  76.1458484  93.1596266  35.5945311  75.9987978
  92.3691809  35.5769449  75.4592477  92.9229620  36.1333604  76.7537014
  93.2794141  32.4437777  73.3120706  93.3292146  32.2787784  74.2536229
  93.1708064  31.5765036  72.9218587  82.1630399  35.1226323  60.6012795
  82.3118520  35.8061787  59.9479468  82.9696843  35.1031413  61.1162251
  90.5697903  28.4268705  74.6280013  91.4707766  28.2875170  74.3364011
  90.6445878  28.5923160  75.5678190  84.9040708  25.8035560  73.4733199
  84.0344018  26.0969126  73.2015788  85.1400189  26.3876005  74.1940463
  94.7812338  34.8634719  73.5562728  94.4897146  35.2264699  74.3926189
  94.1684469  34.1501727  73.3776060  95.9808020  32.4287598  66.0765298
  96.8154911  32.8677402  66.2402858  96.1167149  31.9526252  65.2573544
  93.0299526  29.9867333  72.0242786  93.5053647  30.1794979  71.2161637
  92.1065091  30.0426519  71.7786169  79.9183032  31.1491500  61.6073864
  79.6729074  30.2453830  61.8054074  80.0878947  31.1508651  60.6653342
  87.6079742  22.0215177  70.9898620  88.1261686  22.7576204  70.6645108
  87.2534875  22.3279170  71.8245379  79.1878680  26.8819858  59.1060025
  78.4947925  26.9564213  58.4500061  78.9430432  26.1180202  59.6281542
  87.8592336  18.4415459  66.5099516  88.1394090  17.7738648  67.1359943
  88.6442943  18.6344555  65.9974180  85.6625805  37.6174453  58.0724543
  85.0899772  38.2364640  57.6195014  86.2358599  38.1673815  58.6064464
  91.7301195  26.8633093  70.2571091  92.6818618  26.9631191  70.2783315
  91.5604645  26.0711362  70.7669176  89.7515574  23.9488676  70.4430492
  89.1565506  24.2293689  69.7476981  89.4665271  24.4382577  71.2147233
  88.8823065  37.9011603  59.2033125  89.8153738  37.8357165  59.4066000
  88.7946278  38.7367870  58.7447657  91.5111081  37.2177474  56.1637072
  91.4324713  36.8837337  57.0572830  92.3320748  37.7099242  56.1628545
  94.2089273  30.0839213  69.3713391  94.1765593  29.1455214  69.5573075
  94.8189896  30.1623250  68.6379216  86.0472603  28.9535266  55.4140595
  86.9931708  28.8241474  55.4829013  85.6686848  28.2149928  55.8910023
  94.3583761  26.8750256  69.4171674  93.8422810  26.0908713  69.2301603
  95.2423710  26.5468973  69.5818194  92.0194488  20.6191272  65.3767487
  91.8219309  20.3106360  66.2610819  92.6294194  21.3452911  65.5065417
 100.0265822  31.1455220  68.5119428 100.7569211  30.8840508  69.0727131
  99.4172768  30.4083942  68.5521496  98.1081120  29.2863082  69.1093879
  97.3814283  29.1519047  68.5010371  97.6928406  29.5939911  69.9150597
  85.9311296  33.0053012  76.8741252  86.8514305  33.1831611  77.0681299
  85.8960879  32.0609057  76.7220951  84.2315521  26.8785242  55.3495480
  83.3246976  26.5818355  55.4258194  84.5091502  26.5815060  54.4829766
  75.1493461  28.1991606  65.7994527  74.8296245  27.3456914  65.5068901
  74.6026889  28.4140184  66.5552494  78.9273369  30.9154047  69.5164033
  79.1459378  31.8471155  69.5352067  79.3399142  30.5562021  70.3018837
  85.8477586  21.4222132  61.5039722  85.0378315  21.0769217  61.8794968
  86.5362003  21.1129676  62.0927333  87.7768135  20.5000179  63.1264018
  88.3299173  20.9195632  63.7854041  88.0138221  19.5735927  63.1686974
  83.8001234  26.4887252  78.9066782  83.6997961  27.4381609  78.8378873
  83.5822776  26.1605491  78.0342852  83.0014305  23.7372178  55.4907459
  83.8633469  24.0627076  55.7503277  83.1864649  22.9503673  54.9780525
  75.0181721  31.8194517  67.7687648  74.3245192  31.4048470  67.2557603
  75.7654712  31.8615054  67.1721067  91.1546942  22.6100704  62.6342682
  90.5745611  23.2685508  62.2520735  90.8882874  21.7878049  62.2230100
  89.6050508  22.0105762  64.8364003  90.1050286  22.1222296  64.0278322
  90.2486116  21.7066815  65.4764811  83.6632504  29.9184391  77.7231844
  83.1799586  30.7184751  77.9295733  83.7493443  29.9292336  76.7699288
  76.9318464  31.7512771  65.6453663  76.9089152  31.8500458  64.6935546
  77.2419100  32.5977922  65.9670829  79.5905841  33.8088926  69.7600278
  80.5449095  33.7772868  69.6930209  79.3918365  33.3479550  70.5750503
  80.1805224  32.3790042  72.3271075  80.9998113  32.8734121  72.3505912
  80.4542031  31.4622010  72.2988643  89.9371820  24.7700794  61.6899031
  89.0497675  25.0550445  61.4719225  90.3525809  24.6094558  60.8426308
  93.2886356  24.7947315  65.4053370  94.0646746  25.2843768  65.6777987
  92.5634490  25.2205370  65.8625239  95.7258914  25.5074935  66.4627311
  96.3203405  25.2670671  65.7520619  95.7985498  24.7882065  67.0900847
  77.9456070  39.3508546  66.7770475  77.8110538  38.5908946  66.2108473
  77.5288132  40.0749445  66.3099264  89.0815033  34.5345469  55.7847051
  89.7850883  34.7395472  56.4004706  88.3577682  35.1022231  56.0496134
  89.9112843  30.2855330  61.9049321  89.8548045  30.7423882  61.0656953
  90.4641186  29.5246015  61.7272164  93.7217649  26.0745062  62.7299440
  93.4654584  25.6741698  63.5607648  93.0970517  26.7888856  62.6049580
  98.0329987  28.8141135  65.2370732  97.4729545  28.8834325  66.0102294
  97.4273491  28.6382120  64.5170228  81.1025196  40.2477863  66.9888918
  80.9857580  41.1923295  66.8867608  80.2817642  39.9451424  67.3774717
  90.9901731  34.9727998  57.8345511  91.8247335  34.5409197  57.6522986
  90.8286074  34.8010012  58.7622405  90.6447623  31.4760112  59.2001850
  90.5896427  31.3104383  58.2590294  90.0193678  32.1836144  59.3564040
  75.4340138  26.7128176  73.0263272  76.0799001  26.2027130  73.5150497
  75.2257289  27.4496858  73.6006697  87.9593530  33.7809023  78.5255413
  88.8284690  33.9549676  78.1642048  87.4800281  34.6003440  78.4031142
  83.9543748  20.9768221  58.7787168  83.9422418  21.9210060  58.9355439
  84.8467170  20.7938366  58.4846630  82.1279710  40.9006124  70.2044846
  83.0306957  40.9329735  70.5211341  81.9017080  39.9706575  70.2191182
  83.8833312  39.6537111  66.8654925  82.9328943  39.6538973  66.7519297
  84.1865798  38.9069846  66.3490960  87.7695868  17.5710997  63.0333105
  87.0028264  17.0169484  63.1789788  88.1806573  17.6432866  63.8947257
  79.7737629  23.8595793  77.1238286  80.6369090  23.5032598  77.3341611
  79.2003039  23.5209688  77.8113691  99.6186006  45.4897649  67.9300687
 100.2564416  45.3704397  67.2264028  99.5006849  46.4378493  67.9888640
  96.4275712  45.4425077  67.8662212  96.0894224  45.3266142  66.9782747
  97.2965480  45.0416243  67.8463218  92.2862528  47.2960554  63.8559103
  91.7227393  47.2050491  63.0875391  92.1714923  46.4760458  64.3361596
  96.9095495  46.5959929  73.8248418  96.8984136  46.2012727  72.9528921
  97.0716134  45.8626002  74.4182189  89.8326960  48.7911745  66.6943324
  90.6248252  48.4502570  66.2789623  90.0723610  48.9006721  67.6145477
  97.8662086  50.9631522  59.1673568  97.2150066  51.5485602  58.7807582
  98.6606449  51.4937716  59.2268605  91.7917714  48.0520659  59.5660702
  92.5648590  47.5049646  59.4273578  92.1443112  48.9164908  59.7775164
  93.6302756  49.3797041  72.7727602  93.3392622  50.2842672  72.6574268
  94.2659740  49.4213569  73.4871671  94.5558963  46.7573890  69.3628961
  95.1522535  46.5329912  68.6485924  94.6133934  46.0158635  69.9654409
  94.1283991  44.2113325  57.1979152  94.3809512  43.6894846  56.4362615
  93.1908550  44.0479470  57.3005836  99.1727274  43.2149103  65.0053896
  99.9590363  42.7968526  64.6544313  99.4365979  44.1195195  65.1735544
  99.3437352  48.6521954  59.7042552  98.7083185  48.7256580  60.4163457
  99.0134758  49.2415552  59.0261632 104.5735701  43.1524336  65.9086874
 105.3060873  42.5823553  66.1424704 103.8175057  42.7645937  66.3493380
  93.8480280  46.1141431  59.4003527  93.7316538  45.4386334  60.0684612
  93.9582540  45.6273805  58.5835680  96.1911821  45.5751578  63.1050216
  95.8270028  45.0482199  63.8163138  97.0478937  45.1850047  62.9316702
 102.0961122  36.8645911  70.3681483 101.7644446  37.7341321  70.1442698
 101.5006735  36.5482195  71.0475513  95.8317308  40.6041478  58.1011565
  95.9991710  41.4721714  58.4682036  95.6414477  40.7668759  57.1772854
  98.5892641  49.0658457  69.7677395  98.2893364  49.9683495  69.6593203
  98.2443701  48.7990640  70.6198548  92.0405123  45.5172253  65.8014100
  91.1155619  45.3848467  66.0091792  92.2889536  46.2966473  66.2984042
 101.9889785  41.5840997  67.4474833 101.0806662  41.5156405  67.1533594
 101.9377381  42.0612942  68.2756658  95.8106529  43.0599135  59.0858232
  95.6906154  43.5056186  59.9243712  95.1159117  43.4084453  58.5271770
  89.4013934  45.1605527  66.6357889  89.5306315  45.4140006  67.5497301
  88.7211385  45.7533235  66.3162544  93.5713421  55.8302777  62.7348363
  93.4937451  56.7810602  62.8136844  92.9675065  55.4848649  63.3923289
  96.0630651  43.0030642  75.3909730  95.2863985  43.5624562  75.3812595
  96.7021214  43.4887425  75.9124600 103.8551431  39.7857435  69.2252707
 103.2125812  40.0789968  68.5792501 103.3506360  39.6710355  70.0305903
 101.5091595  43.5320608  59.9138566 102.4209451  43.7647995  59.7386263
 101.0001242  44.1157652  59.3513644  94.3177023  45.8116096  74.9527697
  95.0591707  46.3501140  74.6762521  93.6114009  46.4382384  75.1099249
  99.7932363  47.9545236  73.5499858 100.2015719  47.5127647  72.8054491
  99.0709624  47.3797864  73.8034051  96.1463433  42.8917843  70.9233415
  96.9924628  43.3157256  71.0668064  96.0862070  42.2351467  71.6171979
 100.1161177  48.5146427  67.3052147  99.4870040  48.6792141  66.6028215
  99.7286839  48.9288036  68.0763111 103.9950409  49.4500865  64.6596511
 103.3101447  49.8299766  64.1093544 104.0794259  50.0596191  65.3928459
  99.2962878  40.5522211  72.5814589  99.0523810  41.3064272  72.0448865
  99.5722809  40.9307559  73.4161836 101.2501341  47.0960824  71.2591855
 101.4618236  47.7392583  70.5826236 101.2031089  46.2623140  70.7913785
  98.8527570  39.7078644  68.1628427  97.9912049  40.0059898  68.4545164
  98.8790004  39.9249043  67.2309459  95.6689139  48.2520835  64.5702232
  96.1327485  48.5308538  63.7806855  95.4045937  47.3504279  64.3875323
  92.5613220  47.7992316  67.5081996  93.1314577  48.2279585  66.8699480
  93.1521332  47.5174901  68.2066181  94.6058025  44.3743987  61.3791798
  95.3082069  44.8265031  61.8465724  94.2738654  43.7327806  62.0071691
  93.0538387  42.9655744  75.7543007  92.4237047  43.6472025  75.9878404
  92.9474475  42.8538825  74.8096145  88.3483359  42.6327540  66.6808931
  87.5582413  42.8885068  66.2049042  88.8394607  43.4475878  66.7860972
 102.3647169  49.9732779  69.4314212 103.1864613  49.5712966  69.1496894
 102.3609572  49.8701013  70.3830328  90.2998105  42.9972119  63.6392408
  89.5029268  43.1090813  64.1575904  90.0723697  43.3358771  62.7733298
  96.1303772  49.5216822  71.5874922  96.1948205  49.9837230  72.4233094
  95.4214696  48.8914187  71.7157232  86.6321062  42.8858030  69.1123922
  86.8829101  43.7705040  69.3781498  87.1680611  42.7062632  68.3399014
  95.8451790  51.1884930  61.4553903  95.7097465  52.0336466  61.8838751
  96.3861602  51.3904207  60.6919837  92.3319130  37.2676510  78.1168258
  91.9386075  36.7142708  78.7915902  93.1485270  37.5787088  78.5074776
  89.2981187  48.7060368  62.0281828  89.8105708  49.5003618  62.1787393
  89.9503900  48.0086658  61.9615429  91.1076072  51.8226124  64.1104581
  91.2842700  52.7444089  63.9225565  91.9032906  51.5084543  64.5398961
  95.2487091  38.6834389  75.7088515  95.9896804  39.2841542  75.6292977
  95.4805013  37.9412027  75.1506557  90.3928429  43.8690756  73.9866744
  90.2781944  42.9676013  74.2873843  89.5372946  44.1154453  73.6351561
  97.4720266  51.8108496  75.5854245  97.0284120  51.0244875  75.2675149
  98.1337480  51.9987647  74.9198136  92.2307387  53.3404298  70.1114923
  92.7814813  53.2121361  69.3391917  91.3918863  53.6399187  69.7609816
  99.5701504  52.0911296  73.6135646  99.5519980  52.9120177  73.1215915
 100.4921424  51.9665371  73.8385787  96.0274559  49.6055426  74.4559155
  96.5602895  48.8443714  74.2258462  95.4988640  49.3129078  75.1983309
  99.1944253  34.7115492  69.9852796  98.8508523  35.6017133  69.9091907
  99.5623216  34.5217149  69.1222381  87.2630104  47.0349022  62.8041398
  88.1005326  47.4446031  62.5875106  87.4408372  46.0948464  62.7741592
  99.1594536  44.7024103  58.4925231  98.6441160  45.4728707  58.7313619
  98.8871845  44.0289239  59.1158293  96.7441647  39.5473804  63.5510470
  95.8883244  39.1580654  63.3716108  97.1568599  39.6265764  62.6910255
  98.2740794  37.0820147  67.9502029  97.7705589  37.0450282  67.1369835
  98.5671401  37.9912890  68.0098686  94.5183680  37.1658877  66.9568211
  95.3836677  36.9701685  66.5974101  94.5861189  36.9369228  67.8837568
 104.1328810  47.4556457  60.4278405 103.3558253  47.1167617  59.9833567
 104.8120291  47.4609081  59.7533370  98.9480839  42.5751195  60.3185013
  98.6430975  42.8897344  61.1695156  99.9011281  42.6532615  60.3612346
  97.3927271  48.7341418  61.9677967  96.8648633  47.9994178  61.6551204
  96.8914774  49.5116095  61.7217935 102.3720117  46.9290439  67.0845013
 101.7143792  47.6189700  67.1725141 103.1760516  47.3186871  67.4278999
  92.1245999  39.3961084  64.3284578  92.6989751  39.1736266  63.5957771
  92.7116981  39.4649779  65.0813179 101.1825576  45.2834811  65.1348955
 101.6957458  45.9164803  65.6370664 101.8326800  44.6836007  64.7692315
  92.4515586  41.4265546  58.3480463  91.6152898  41.7640232  58.6689738
  92.3120356  41.2914525  57.4107600  94.4268667  36.2702333  63.0559647
  93.7733079  35.9551351  62.4316262  94.3849141  35.6478074  63.7819470
  95.5379871  46.5521628  54.9712940  94.6306933  46.3210882  55.1704089
  96.0350903  45.7559248  55.1586921  98.4447950  55.2619136  57.8909626
  97.7709649  55.5650832  58.4994584  98.8313772  56.0648216  57.5415083
  97.6606407  42.7584267  67.3807295  96.7428968  42.9799214  67.2228983
  98.0766551  42.8330577  66.5219002  98.4441455  44.1575683  62.5109975
  99.1913274  44.6697080  62.2017097  98.7133044  43.8359735  63.3714369
  96.7168105  46.6534223  59.4936930  95.8079324  46.3693256  59.5909399
  96.7463189  47.0733302  58.6340236 101.9487372  50.2640813  63.2628097
 101.4949699  49.4231723  63.3193288 101.3181339  50.9002211  63.6002877
 100.8920292  41.1932799  64.4928765 100.1543049  40.6810185  64.8239007
 101.1447065  40.7533180  63.6812042 100.3920311  52.1017310  64.1977915
 100.6843286  52.6622367  63.4790281 100.9018932  52.3945871  64.9531074
 100.9931919  33.9709051  65.0870534 101.2990796  33.1106414  64.7996449
 101.7184524  34.5626671  64.8869528  87.2856275  44.3739737  63.4752132
  87.0880675  43.7809098  62.7503198  86.7302939  44.0691948  64.1928071
  95.2652999  44.2662844  65.5946725  95.3201609  43.3136680  65.5189202
  94.4544201  44.4222283  66.0788023  96.4144193  48.1942967  56.8325008
  95.9763623  47.4778826  56.3730646  97.1554634  48.4219082  56.2710100
  93.2045359  42.8839904  63.3537104  92.3913224  43.1834074  63.7602296
  93.7004353  42.4895592  64.0711586  95.3553937  52.8797661  65.2871369
  95.3130115  53.1058507  64.3579901  96.2716636  52.6461035  65.4357170
  98.8019570  43.3481728  72.1851998  99.1568958  43.5753201  73.0446464
  99.4491702  43.6800105  71.5629253 104.5317307  46.4700164  62.8901327
 104.3935206  46.6601760  61.9622516 104.1753526  47.2319547  63.3469378
  92.6959434  40.4558259  68.9698339  93.3358813  40.3147018  68.2721302
  91.8636964  40.1692773  68.5936941 104.5586687  48.5376691  67.9012598
 104.9923194  48.4451980  68.7495652 105.2718268  48.5134192  67.2632614
  93.4719737  49.7560690  65.0833331  94.2660336  49.2611010  64.8815906
  92.7611430  49.2278553  64.7201037  98.2914582  52.1378785  69.4345699
  98.3451604  52.7069721  70.2023415  97.4229363  52.3080670  69.0699736
  89.7802501  43.9003771  61.1593084  88.8500089  43.8388227  61.3763046
  89.8759973  43.3779724  60.3629725  89.6988050  40.4258584  63.7471326
  89.9594867  41.3403917  63.6380486  90.5205222  39.9583027  63.8967938
  91.1712975  41.8396341  70.9170150  91.8436029  41.6313703  70.2682799
  90.3442762  41.6418427  70.4775382 105.4202237  48.5800392  70.4345484
 105.6138127  49.4846202  70.6804759 105.3202855  48.1207811  71.2684069
  97.0738547  38.4658282  72.9335811  96.4266462  39.1648232  72.8400287
  97.8439563  38.8994426  73.3012059 100.4817345  48.7307134  76.0086364
 100.3302852  48.5017686  75.0916448 100.4722025  49.6877736  76.0217709
  97.2502682  46.3039047  70.9932631  98.1794742  46.4550207  70.8201598
  96.8293712  46.3923068  70.1381277  96.0491013  50.3289712  68.7631168
  95.9102099  49.9608496  69.6357106  95.2605610  50.8437351  68.5915126
  96.6439165  55.4298808  60.1056705  96.8190921  54.9586851  60.9202328
  95.9571953  56.0564574  60.3337966  97.5996229  49.7071314  66.1520006
  97.2646061  49.6672084  67.0477656  97.1000174  49.0416030  65.6790416
  91.5740473  45.1138944  71.6772587  91.4360271  44.3819183  72.2784126
  92.4845396  45.0247844  71.3956775 100.5355420  47.0527349  56.4257066
  99.9184591  46.3274177  56.3290118 100.0671909  47.8136709  56.0824140
  94.2022773  44.8258904  71.1656267  94.9122392  44.1852096  71.1242885
  94.1592081  45.0771799  72.0882448 102.1909552  51.7626257  74.0862846
 102.1322098  51.0785477  73.4193429 102.5929070  52.5045247  73.6343472
  92.9151707  41.8124122  72.9851906  92.3789064  41.3614860  73.6373503
  92.3268416  41.9470030  72.2422371  91.2100251  58.5788171  66.8796565
  91.4496849  59.2106695  67.5575584  90.3669447  58.2276211  67.1661924
  92.3253966  41.2712773  55.5478370  91.4483432  41.1501574  55.1840617
  92.8011719  40.4798851  55.2957259 102.1926959  49.7265841  72.3176826
 101.3053738  49.3891763  72.4403225 102.7625510  48.9948872  72.5545591
  83.8456106  46.0589933  65.6419877  84.5327146  45.7451663  65.0540893
  83.6904235  46.9631297  65.3687129  88.6490828  40.9480129  70.0704901
  88.5649017  40.3405799  69.3355311  87.8273535  41.4389148  70.0714397
  95.7228113  54.3867293  69.2838069  95.6498284  55.1922265  69.7957374
  95.2805506  54.5859259  68.4586090  95.5117892  53.6239063  62.7940891
  94.7285414  54.1660744  62.8879115  96.2110637  54.1413043  63.1935132
  98.8214542  39.4333693  65.4375096  99.3183242  38.6803655  65.1176166
  98.0501524  39.4698009  64.8718305  98.1826796  54.2854127  71.4396228
  98.8954768  54.9201592  71.3672129  97.6916825  54.3817993  70.6236230
  99.9044323  48.1905380  63.0113519  98.9700602  48.3106842  62.8418224
 100.0820991  47.2877847  62.7473529  95.4049511  41.5751076  65.1646781
  95.0347299  41.0222116  65.8527686  95.9008604  40.9709209  64.6121781
 103.2916874  44.0322699  63.5463554 103.7577327  44.8650691  63.4723856
 103.7424375  43.5667681  64.2508812  93.2338710  52.0348571  72.2601799
  93.9348169  52.6685054  72.4131193  92.7633825  52.3763302  71.4997438
 101.3593105  50.3766521  60.5449706 101.6352949  50.2623115  61.4543580
 100.4897604  49.9784005  60.5061879 101.2633537  36.4003286  67.5854455
 100.3496617  36.6307513  67.7536662 101.6926639  36.4841730  68.4368487
 101.0339996  44.5893178  70.0854349 100.3811446  44.8369086  69.4306802
 101.4120375  43.7757316  69.7516826  97.9947169  54.6252871  64.1882519
  98.1769564  53.8074527  64.6510272  98.8180155  54.8420564  63.7507409
  98.3289335  53.5521057  61.4497568  98.8577101  53.0413511  60.8367730
  98.5917555  53.2363587  62.3143101  97.0827569  45.3312989  76.5720386
  96.4068206  45.2307119  77.2422761  97.9055203  45.1752203  77.0356383
  88.8306428  51.5684926  69.1932901  89.4159865  50.8228614  69.3260805
  88.6331266  51.8788883  70.0769565  91.6845083  54.6036173  64.2095344
  91.0155458  55.0882301  63.7259384  91.5457953  54.8505394  65.1238722
  83.4224082  44.1390526  67.9137344  83.4608182  43.6054117  68.7074462
  82.9164375  43.6125732  67.2948322  95.8250352  56.6379917  70.8078002
  96.3768660  56.8011538  71.5727087  96.1656545  57.2284355  70.1358027
  90.8014845  38.9855067  71.4099887  90.8656171  39.8469897  70.9977284
  90.7381965  38.3729068  70.6772245  90.2767117  41.0578199  75.0572921
  90.9039156  40.6755276  75.6710445  89.4195036  40.8392401  75.4228613
 100.6761226  51.4641174  76.6626656 101.2201130  52.0771133  76.1681611
 100.0948071  52.0220753  77.1793669  87.0532660  42.8654628  60.9891276
  87.3486101  41.9565307  60.9358329  86.1520696  42.8442368  60.6672278
  98.9618739  54.5861892  67.7941684  98.8369878  53.7851632  67.2852630
  99.6197830  55.0808086  67.3055654  90.5826907  40.9410625  66.9718824
  89.8613493  41.5546592  66.8326298  91.3720163  41.4768390  66.8935470
 101.0253647  52.3870912  69.4221234 100.0783983  52.2676264  69.3499561
 101.3736420  51.4993410  69.5047496  93.3853221  38.2765051  73.2459476
  93.9087622  38.5227348  74.0085785  93.1665554  39.1085086  72.8262613
  88.7820502  40.5468726  61.1130601  88.4533208  39.6666105  60.9305707
  89.1359872  40.4916395  62.0006990  98.0300080  52.1823629  65.6225586
  97.8825043  51.2540336  65.8033156  98.8553574  52.2043719  65.1382662
  91.8962325  40.8341696  61.4806079  92.2358397  41.3627617  60.7584687
  92.3434445  41.1722102  62.2564645 101.6334202  53.0052187  66.7090459
 102.5580750  52.7995049  66.5714910 101.4649506  52.7568588  67.6179801
  94.5905766  39.2178746  70.9309147  94.2502586  38.4186559  71.3329827
  93.8844772  39.5180457  70.3585980  95.2422237  36.3028059  69.3836470
  96.0648307  35.8288537  69.2615360  95.4860301  37.0818543  69.8835156
  93.8830472  39.3316317  59.6799371  94.6038834  39.7097570  59.1763088
  93.2595776  40.0505194  59.7834349  98.0261595  40.0361466  60.6157704
  98.2425209  40.9186104  60.3146532  97.5455662  39.6447680  59.8863346
  92.7660816  42.9947179  67.1928448  92.6205397  43.3087483  68.0852730
  92.2886020  43.6132080  66.6399347  94.6257199  39.9849727  67.2409338
  94.6118768  39.0890821  66.9041636  95.3429627  39.9920391  67.8747624
  96.4783330  40.4187068  69.2862465  96.2201108  41.3404138  69.2846796
  95.9468370  40.0217502  69.9762929 101.4229519  53.5237855  62.0652551
 101.5966396  52.9584277  61.3126403 101.9158410  54.3238750  61.8832041
  87.2406478  45.5352524  70.1316109  86.6959946  46.3112332  70.2636384
  88.1185828  45.8823328  69.9735231  94.0294095  38.8664108  62.5096908
  94.1510006  37.9380754  62.7087795  93.7396137  38.8802794  61.5975223
  96.8985285  36.5519018  65.6463628  96.9206982  36.6158351  64.6915607
  97.3153344  35.7123527  65.8404134 102.4104691  52.8404619  59.1649449
 103.1055596  53.4611312  59.3836764 102.7527841  51.9899970  59.4401827
  88.0272500  44.6622420  73.0246266  87.2854236  44.8105055  73.6110897
  87.7065244  44.9230686  72.1613016 104.3096114  50.2904325  60.6936780
 104.8347438  50.6291597  59.9686100 104.2218467  49.3551340  60.5099914
  95.9716163  54.2038398  72.8226656  96.2803289  53.9587545  73.6949356
  96.7691645  54.4085037  72.3345527  95.9936775  56.3576308  65.0532033
  95.5541765  55.8652687  65.7464890  96.7444892  55.8149276  64.8124108
  88.4729114  52.5487849  65.0556661  89.2987134  52.2491621  64.6755304
  88.1223166  51.7795471  65.5046450  93.4410647  51.9014317  67.1254335
  92.8190656  51.2385022  66.8256562  94.1115514  51.9275449  66.4427982
  86.6737719  50.4674175  66.0145595  85.8369627  50.0396350  65.8329596
  86.6461364  50.6606619  66.9516386  93.5135175  40.3796105  76.7186841
  93.5623330  41.2558228  76.3364610  94.0557689  39.8373498  76.1458484
 103.9990020  50.9237228  75.9987978 103.2085564  50.9061367  75.4592477
 103.7623375  51.4625522  76.7537014 104.1187895  47.7729695  73.3120706
 104.1685900  47.6079702  74.2536229 104.0101819  46.9056954  72.9218587
  93.0024154  50.4518240  60.6012795  93.1512274  51.1353705  59.9479468
  93.8090597  50.4323330  61.1162251 101.4091658  43.7560623  74.6280013
 102.3101520  43.6167088  74.3364011 101.4839632  43.9215078  75.5678190
  95.7434463  41.1327477  73.4733199  94.8737772  41.4261044  73.2015788
  95.9793943  41.7167922  74.1940463 105.6206092  50.1926636  73.5562728
 105.3290900  50.5556617  74.3926189 105.0078223  49.4793645  73.3776060
 103.8693280  45.3159251  72.0242786 104.3447402  45.5086897  71.2161637
 102.9458846  45.3718437  71.7786169  90.7576787  46.4783418  61.6073864
  90.5122829  45.5745748  61.8054074  90.9272701  46.4800568  60.6653342
  98.4473497  37.3507094  70.9898620  98.9655441  38.0868121  70.6645108
  98.0928630  37.6571088  71.8245379  90.0272434  42.2111776  59.1060025
  89.3341679  42.2856131  58.4500061  89.7824186  41.4472119  59.6281542
  98.6986091  33.7707377  66.5099516  98.9787845  33.1030566  67.1359943
  99.4836698  33.9636473  65.9974180  96.5019559  52.9466371  58.0724543
  95.9293527  53.5656558  57.6195014  97.0752353  53.4965733  58.6064464
 102.5694949  42.1925011  70.2571091 103.5212372  42.2923109  70.2783315
 102.3998400  41.4003279  70.7669176 100.5909329  39.2780594  70.4430492
  99.9959261  39.5585607  69.7476981 100.3059025  39.7674495  71.2147233
  99.7216819  53.2303521  59.2033125 100.6547492  53.1649083  59.4066000
  99.6340032  54.0659788  58.7447657 102.3504836  52.5469391  56.1637072
 102.2718467  52.2129255  57.0572830 103.1714503  53.0391159  56.1628545
 105.0483027  45.4131131  69.3713391 105.0159347  44.4747131  69.5573075
 105.6583651  45.4915167  68.6379216  96.8866358  44.2827184  55.4140595
  97.8325463  44.1533392  55.4829013  96.5080603  43.5441846  55.8910023
 105.1977516  42.2042174  69.4171674 104.6816564  41.4200631  69.2301603
 106.0817464  41.8760891  69.5818194 102.8588242  35.9483190  65.3767487
 102.6613064  35.6398278  66.2610819 103.4687948  36.6744829  65.5065417
  96.7705050  48.3344930  76.8741252  97.6908060  48.5123529  77.0681299
  96.7354634  47.3900975  76.7220951  95.0709275  42.2077160  55.3495480
  94.1640730  41.9110273  55.4258194  95.3485256  41.9106978  54.4829766
  85.9887215  43.5283523  65.7994527  85.6690000  42.6748832  65.5068901
  85.4420644  43.7432102  66.5552494  89.7667123  46.2445964  69.5164033
  89.9853133  47.1763072  69.5352067  90.1792897  45.8853939  70.3018837
  96.6871341  36.7514050  61.5039722  95.8772069  36.4061135  61.8794968
  97.3755758  36.4421593  62.0927333  98.6161889  35.8292097  63.1264018
  99.1692928  36.2487550  63.7854041  98.8531975  34.9027845  63.1686974
  94.6394988  41.8179170  78.9066782  94.5391715  42.7673527  78.8378873
  94.4216530  41.4897409  78.0342852  93.8408060  39.0664095  55.4907459
  94.7027224  39.3918994  55.7503277  94.0258404  38.2795591  54.9780525
  85.8575475  47.1486435  67.7687648  85.1638947  46.7340388  67.2557603
  86.6048466  47.1906971  67.1721067 101.9940696  37.9392622  62.6342682
 101.4139365  38.5977426  62.2520735 101.7276629  37.1169966  62.2230100
 100.4444263  37.3397679  64.8364003 100.9444041  37.4514214  64.0278322
 101.0879870  37.0358732  65.4764811  94.5026258  45.2476309  77.7231844
  94.0193340  46.0476669  77.9295733  94.5887197  45.2584254  76.7699288
  87.7712218  47.0804689  65.6453663  87.7482906  47.1792376  64.6935546
  88.0812855  47.9269839  65.9670829  90.4299596  49.1380844  69.7600278
  91.3842849  49.1064786  69.6930209  90.2312119  48.6771467  70.5750503
  91.0198978  47.7081960  72.3271075  91.8391867  48.2026038  72.3505912
  91.2935786  46.7913928  72.2988643 100.7765574  40.0992712  61.6899031
  99.8891429  40.3842363  61.4719225 101.1919563  39.9386475  60.8426308
 104.1280110  40.1239233  65.4053370 104.9040500  40.6135685  65.6777987
 103.4028245  40.5497287  65.8625239  88.7849825  54.6800463  66.7770475
  88.6504293  53.9200864  66.2108473  88.3681887  55.4041363  66.3099264
  99.9208788  49.8637387  55.7847051 100.6244638  50.0687389  56.4004706
  99.1971436  50.4314149  56.0496134 100.7506598  45.6147248  61.9049321
 100.6941799  46.0715799  61.0656953 101.3034940  44.8537933  61.7272164
 104.5611404  41.4036980  62.7299440 104.3048338  41.0033616  63.5607648
 103.9364272  42.1180774  62.6049580  91.9418951  55.5769780  66.9888918
  91.8251335  56.5215213  66.8867608  91.1211397  55.2743342  67.3774717
 101.8295485  50.3019916  57.8345511 102.6641089  49.8701114  57.6522986
 101.6679828  50.1301930  58.7622405 101.4841377  46.8052029  59.2001850
 101.4290181  46.6396301  58.2590294 100.8587433  47.5128062  59.3564040
  86.2733892  42.0420094  73.0263272  86.9192756  41.5319048  73.5150497
  86.0651043  42.7788775  73.6006697  98.7987284  49.1100941  78.5255413
  99.6678444  49.2841593  78.1642048  98.3194036  49.9295358  78.4031142
  94.7937503  36.3060138  58.7787168  94.7816173  37.2501978  58.9355439
  95.6860925  36.1230284  58.4846630  92.9673465  56.2298042  70.2044846
  93.8700711  56.2621652  70.5211341  92.7410835  55.2998493  70.2191182
  94.7227067  54.9829029  66.8654925  93.7722698  54.9830890  66.7519297
  95.0259553  54.2361763  66.3490960  98.6089622  32.9002915  63.0333105
  97.8422018  32.3461402  63.1789788  99.0200327  32.9724784  63.8947257
  90.6131383  39.1887711  77.1238286  91.4762845  38.8324516  77.3341611
  90.0396794  38.8501606  77.8113691 103.1256282  62.6252472  63.8559103
 102.5621147  62.5342408  63.0875391 103.0108677  61.8052376  64.3361596
 100.6720714  64.1203663  66.6943324 101.4642006  63.7794488  66.2789623
 100.9117364  64.2298638  67.6145477 102.6311468  63.3812576  59.5660702
 103.4042344  62.8341563  59.4273578 102.9836867  64.2456826  59.7775164
 104.4696511  64.7088959  72.7727602 104.1786377  65.6134590  72.6574268
 105.1053495  64.7505486  73.4871671 105.3952717  62.0865807  69.3628961
 105.9916290  61.8621830  68.6485924 105.4527689  61.3450553  69.9654409
 104.9677746  59.5405243  57.1979152 105.2203267  59.0186764  56.4362615
 104.0302305  59.3771388  57.3005836 104.6874035  61.4433348  59.4003527
 104.5710293  60.7678252  60.0684612 104.7976294  60.9565722  58.5835680
 102.8798877  60.8464171  65.8014100 101.9549374  60.7140385  66.0091792
 103.1283290  61.6258390  66.2984042 100.2407688  60.4897445  66.6357889
 100.3700069  60.7431923  67.5497301  99.5605140  61.0825153  66.3162544
 104.4107175  71.1594695  62.7348363 104.3331205  72.1102520  62.8136844
 103.8068819  70.8140567  63.3923289 105.1570778  61.1408013  74.9527697
 105.8985462  61.6793057  74.6762521 104.4507763  61.7674302  75.1099249
 103.4006975  63.1284234  67.5081996 103.9708332  63.5571502  66.8699480
 103.9915087  62.8466819  68.2066181 103.8932141  58.2947661  75.7543007
 103.2630802  58.9763942  75.9878404 103.7868229  58.1830743  74.8096145
  99.1877114  57.9619458  66.6808931  98.3976168  58.2176986  66.2049042
  99.6788361  58.7767795  66.7860972 101.1391859  58.3264037  63.6392408
 100.3423022  58.4382731  64.1575904 100.9117451  58.6650689  62.7733298
  97.4714817  58.2149948  69.1123922  97.7222855  59.0996958  69.3781498
  98.0074365  58.0354549  68.3399014 103.1712884  52.5968427  78.1168258
 102.7779830  52.0434626  78.7915902 103.9879024  52.9079006  78.5074776
 100.1374942  64.0352286  62.0281828 100.6499462  64.8295536  62.1787393
 100.7897655  63.3378576  61.9615429 101.9469826  67.1518042  64.1104581
 102.1236455  68.0736006  63.9225565 102.7426660  66.8376461  64.5398961
 101.2322183  59.1982674  73.9866744 101.1175698  58.2967931  74.2873843
 100.3766701  59.4446370  73.6351561 103.0701142  68.6696216  70.1114923
 103.6208567  68.5413279  69.3391917 102.2312618  68.9691105  69.7609816
  98.1023859  62.3640940  62.8041398  98.9399081  62.7737948  62.5875106
  98.2802126  61.4240382  62.7741592 102.9639753  54.7253002  64.3284578
 103.5383505  54.5028184  63.5957771 103.5510736  54.7941697  65.0813179
 103.2909340  56.7557463  58.3480463 102.4546653  57.0932150  58.6689738
 103.1514110  56.6206443  57.4107600 105.2662421  51.5994251  63.0559647
 104.6126833  51.2843268  62.4316262 105.2242895  50.9769992  63.7819470
  98.1250030  59.7031655  63.4752132  97.9274430  59.1101016  62.7503198
  97.5696694  59.3983865  64.1928071 104.0439113  58.2131821  63.3537104
 103.2306979  58.5125992  63.7602296 104.5398107  57.8187510  64.0711586
 103.5353188  55.7850177  68.9698339 104.1752567  55.6438936  68.2721302
 102.7030719  55.4984690  68.5936941 104.3113492  65.0852607  65.0833331
 105.1054090  64.5902927  64.8815906 103.6005184  64.5570470  64.7201037
 100.6196255  59.2295689  61.1593084  99.6893844  59.1680145  61.3763046
 100.7153727  58.7071642  60.3629725 100.5381804  55.7550502  63.7471326
 100.7988622  56.6695835  63.6380486 101.3598977  55.2874944  63.8967938
 102.0106730  57.1688259  70.9170150 102.6829783  56.9605621  70.2682799
 101.1836516  56.9710345  70.4775382 102.4134227  60.4430862  71.6772587
 102.2754025  59.7111101  72.2784126 103.3239151  60.3539762  71.3956775
 105.0416528  60.1550821  71.1656267 105.7516146  59.5144014  71.1242885
 104.9985836  60.4063716  72.0882448 103.7545462  57.1416039  72.9851906
 103.2182819  56.6906778  73.6373503 103.1662170  57.2761948  72.2422371
 102.0494005  73.9080089  66.8796565 102.2890603  74.5398613  67.5575584
 101.2063202  73.5568129  67.1661924 103.1647721  56.6004691  55.5478370
 102.2877187  56.4793491  55.1840617 103.6405474  55.8090769  55.2957259
  94.6849861  61.3881850  65.6419877  95.3720901  61.0743580  65.0540893
  94.5297989  62.2923215  65.3687129  99.4884583  56.2772047  70.0704901
  99.4042772  55.6697716  69.3355311  98.6667289  56.7681065  70.0714397
 104.0732464  67.3640488  72.2601799 104.7741924  67.9976971  72.4131193
 103.6027579  67.7055220  71.4997438  99.6700182  66.8976844  69.1932901
 100.2553619  66.1520531  69.3260805  99.4725021  67.2080800  70.0769565
 102.5238837  69.9328091  64.2095344 101.8549213  70.4174219  63.7259384
 102.3851707  70.1797311  65.1238722  94.2617837  59.4682444  67.9137344
  94.3001936  58.9346034  68.7074462  93.7558130  58.9417649  67.2948322
 101.6408599  54.3146984  71.4099887 101.7049926  55.1761815  70.9977284
 101.5775719  53.7020986  70.6772245 101.1160872  56.3870117  75.0572921
 101.7432911  56.0047194  75.6710445 100.2588791  56.1684319  75.4228613
  97.8926415  58.1946546  60.9891276  98.1879856  57.2857224  60.9358329
  96.9914450  58.1734285  60.6672278 101.4220662  56.2702542  66.9718824
 100.7007247  56.8838510  66.8326298 102.2113917  56.8060307  66.8935470
 104.2246975  53.6056969  73.2459476 104.7481377  53.8519265  74.0085785
 104.0059308  54.4377004  72.8262613  99.6214256  55.8760644  61.1130601
  99.2926962  54.9958022  60.9305707  99.9753627  55.8208312  62.0006990
 102.7356079  56.1633613  61.4806079 103.0752152  56.6919535  60.7584687
 103.1828200  56.5014019  62.2564645 105.4299520  54.5470664  70.9309147
 105.0896340  53.7478477  71.3329827 104.7238526  54.8472375  70.3585980
 104.7224226  54.6608235  59.6799371 105.4432589  55.0389488  59.1763088
 104.0989531  55.3797112  59.7834349 103.6054571  58.3239097  67.1928448
 103.4599151  58.6379400  68.0852730 103.1279774  58.9423997  66.6399347
  98.0800233  60.8644442  70.1316109  97.5353701  61.6404249  70.2636384
  98.9579583  61.2115246  69.9735231 104.8687849  54.1956025  62.5096908
 104.9903761  53.2672672  62.7087795 104.5789892  54.2094711  61.5975223
  98.8666255  59.9914338  73.0246266  98.1247991  60.1396973  73.6110897
  98.5458999  60.2522603  72.1613016  99.3122868  67.8779766  65.0556661
 100.1380888  67.5783538  64.6755304  98.9616920  67.1087389  65.5046450
 104.2804402  67.2306235  67.1254335 103.6584411  66.5676940  66.8256562
 104.9509268  67.2567367  66.4427982  97.5131473  65.7966093  66.0145595
  96.6763382  65.3688267  65.8329596  97.4855119  65.9898536  66.9516386
 104.3528929  55.7088023  76.7186841 104.4017084  56.5850146  76.3364610
 104.8951443  55.1665416  76.1458484 103.8417908  65.7810158  60.6012795
 103.9906029  66.4645622  59.9479468 104.6484352  65.7615248  61.1162251
 101.5970541  61.8075336  61.6073864 101.3516583  60.9037666  61.8054074
 101.7666456  61.8092486  60.6653342 100.8666189  57.5403693  59.1060025
 100.1735434  57.6148048  58.4500061 100.6217941  56.7764037  59.6281542
  96.8280970  58.8575441  65.7994527  96.5083754  58.0040749  65.5068901
  96.2814398  59.0724019  66.5552494 100.6060878  61.5737882  69.5164033
 100.8246887  62.5054990  69.5352067 101.0186651  61.2145856  70.3018837
 105.4788743  57.1471088  78.9066782 105.3785470  58.0965445  78.8378873
 105.2610285  56.8189327  78.0342852 104.6801814  54.3956013  55.4907459
 105.5420978  54.7210911  55.7503277 104.8652158  53.6087509  54.9780525
  96.6969230  62.4778353  67.7687648  96.0032701  62.0632305  67.2557603
  97.4442221  62.5198889  67.1721067 105.3420013  60.5768227  77.7231844
 104.8587095  61.3768587  77.9295733 105.4280952  60.5876172  76.7699288
  98.6105973  62.4096606  65.6453663  98.5876661  62.5084294  64.6935546
  98.9206609  63.2561757  65.9670829 101.2693350  64.4672761  69.7600278
 102.2236604  64.4356704  69.6930209 101.0705874  64.0063385  70.5750503
 101.8592733  63.0373877  72.3271075 102.6785622  63.5317956  72.3505912
 102.1329540  62.1205846  72.2988643  99.6243579  70.0092381  66.7770475
  99.4898047  69.2492782  66.2108473  99.2075641  70.7333281  66.3099264
 102.7812705  70.9061698  66.9888918 102.6645089  71.8507130  66.8867608
 101.9605151  70.6035259  67.3774717  97.1127647  57.3712011  73.0263272
  97.7586510  56.8610965  73.5150497  96.9044798  58.1080693  73.6006697
 103.8067219  71.5589960  70.2044846 104.7094466  71.5913570  70.5211341
 103.5804589  70.6290411  70.2191182 105.5620821  70.3120946  66.8654925
 104.6116452  70.3122808  66.7519297 105.8653307  69.5653681  66.3490960
 101.4525138  54.5179628  77.1238286 102.3156599  54.1616433  77.3341611
 100.8790548  54.1793523  77.8113691 105.1011591  74.7974361  67.9137344
 105.1395691  74.2637952  68.7074462 104.5951884  74.2709567  67.2948322
  69.5312743   4.9266458  53.6041872  69.7709341   5.5584982  54.2820890
  68.6881939   4.5754498  53.8907231  81.4468774   8.9730759  50.5804410
  80.8833640   8.8820696  49.8120698  81.3321169   8.1530663  51.0606902
  78.9933206  10.4681950  53.4188630  79.7854498  10.1272775  53.0034930
  79.2329857  10.5776925  54.3390784  87.0268333  12.6401726  45.8918875
  86.3756313  13.2255807  45.5052888  87.8212696  13.1707921  45.9513912
  80.9523960   9.7290864  46.2906009  81.7254836   9.1819851  46.1518885
  81.3049359  10.5935113  46.5020470  82.7909003  11.0567246  59.4972908
  82.4998869  11.9612877  59.3819575  83.4265987  11.0983774  60.2116978
  88.5043598  10.3292158  46.4287859  87.8689431  10.4026785  47.1408764
  88.1741005  10.9185757  45.7506938  87.7498888  10.7428661  56.4922702
  87.4499611  11.6453700  56.3838509  87.4049947  10.4760845  57.3443855
  81.2011369   7.1942458  52.5259406  80.2761866   7.0618672  52.7337098
  81.4495783   7.9736678  53.0229349  78.5620180   6.8375732  53.3603195
  78.6912562   7.0910211  54.2742607  77.8817632   7.4303440  53.0407851
  82.7319668  17.5072982  49.4593670  82.6543697  18.4580807  49.5382150
  82.1281311  17.1618854  50.1168596  89.2767424  10.1916632  54.0297454
  88.6476287  10.3562346  53.3273522  88.8893086  10.6058241  54.8008418
  84.8295386   9.9291040  51.2947539  85.2933732  10.2078743  50.5052162
  84.5652184   9.0274484  51.1120630  81.7219467   9.4762521  54.2327302
  82.2920824   9.9049790  53.5944787  82.3127579   9.1945106  54.9311488
  91.5253416  11.6502984  56.1559519  92.3470859  11.2483171  55.8742200
  91.5215818  11.5471218  57.1075634  85.2910019  11.1987027  58.3120229
  85.3554452  11.6607434  59.1478401  84.5820943  10.5684392  58.4402539
  85.0058037  12.8655135  48.1799209  84.8703711  13.7106670  48.6084057
  85.5467849  13.0674412  47.4165143  78.4587434  10.3830573  48.7527135
  78.9711955  11.1773823  48.9032699  79.1110147   9.6856863  48.6860736
  80.2682319  13.4996329  50.8349888  80.4448947  14.4214294  50.6470872
  81.0639152  13.1854748  51.2644267  86.6326513  13.4878701  62.3099552
  86.1890367  12.7015080  61.9920456  87.2943727  13.6757852  61.6443442
  81.3913634  15.0174503  56.8360230  81.9421059  14.8891566  56.0637224
  80.5525110  15.3169392  56.4855123  88.7307751  13.7681501  60.3380953
  88.7126226  14.5890382  59.8461222  89.6527671  13.6435576  60.5631094
  85.1880805  11.2825631  61.1804461  85.7209142  10.5213919  60.9503769
  84.6594886  10.9899282  61.9228616  76.4236351   8.7119227  49.5286705
  77.2611573   9.1216235  49.3120413  76.6014619   7.7718669  49.4986899
  86.5533518  10.4111623  48.6923273  86.0254880   9.6764383  48.3796511
  86.0521021  11.1886299  48.4463241  87.6054197  16.9389341  44.6154932
  86.9315896  17.2421037  45.2239890  87.9920019  17.7418421  44.2660389
  91.1093619  11.9411018  49.9873404  90.6555946  11.1001928  50.0438594
  90.4787586  12.5772416  50.3248184  89.5526558  13.7787514  50.9223222
  89.8449533  14.3392572  50.2035588  90.0625179  14.0716075  51.6776381
  76.4462522   6.0509942  50.1997438  76.2486922   5.4579303  49.4748505
  75.8909186   5.7462153  50.9173377  85.5750439   9.8713172  43.5570315
  85.1369869   9.1549031  43.0975952  86.3160880  10.0989287  42.9955406
  84.5160183  14.5567866  52.0116675  84.4736362  14.7828712  51.0825207
  85.4322882  14.3231240  52.1602476  82.6325984  11.4330895  51.8078638
  83.4266583  10.9381215  51.6061213  81.9217677  10.9048758  51.4446343
  87.4520829  13.8148990  56.1591006  87.5057851  14.3839926  56.9268721
  86.5835610  13.9850875  55.7945043  89.6423592  10.4077339  62.7331671
  89.4909098  10.1787891  61.8161755  89.6328272  11.3647941  62.7463016
  85.2097260  12.0059917  55.4876475  85.0708346  11.6378701  56.3602413
  84.4211856  12.5207556  55.3160433  85.8045412  17.1069013  46.8302012
  85.9797168  16.6357056  47.6447634  85.1178200  17.7334779  47.0583272
  86.7602475  11.3841519  52.8765313  86.4252308  11.3442289  53.7722963
  86.2606421  10.7186235  52.4035723  91.3515799  13.4396462  60.8108153
  91.2928345  12.7555682  60.1438736  91.7535317  14.1815452  60.3588779
  80.3706497  20.2558376  53.6041872  80.6103096  20.8876900  54.2820890
  79.5275694  19.9046416  53.8907231  73.0062353   7.7360138  52.3665184
  73.6933393   7.4221868  51.7786199  72.8510482   8.6401502  52.0932435
  84.8834359  16.0637498  56.0083376  84.8104531  16.8692470  56.5202680
  84.4411752  16.2629464  55.1831397  84.6724139  15.3009268  49.5186197
  83.8891661  15.8430948  49.6124422  85.3716884  15.8183248  49.9180438
  87.3433043  15.9624332  58.1641534  88.0561015  16.5971797  58.0917436
  86.8523072  16.0588198  57.3481536  82.3944956  13.7118776  58.9847105
  83.0954416  14.3455259  59.1376499  81.9240071  14.0533507  58.2242744
  90.5199352  12.0536725  47.2695012  90.7959196  11.9393320  48.1788886
  89.6503851  11.6554210  47.2307185  87.1553416  16.3023076  50.9127826
  87.3375811  15.4844732  51.3755578  87.9786402  16.5190769  50.4752716
  87.4895582  15.2291261  48.1742874  88.0183348  14.7183716  47.5613036
  87.7523801  14.9133792  49.0388407  77.9912674  13.2455131  55.9178208
  78.5766111  12.4998819  56.0506112  77.7937513  13.5559087  56.8014872
  80.8451330  16.2806378  50.9340650  80.1761705  16.7652506  50.4504690
  80.7064199  16.5275599  51.8484029  72.5830329   5.8160731  54.6382651
  72.6214429   5.2824322  55.4319769  72.0770622   5.2895936  54.0193628
  84.9856598  18.3150122  57.5323309  85.5374906  18.4781743  58.2972394
  85.3262792  18.9054559  56.8603333  89.8367473  13.1411379  63.3871963
  90.3807377  13.7541337  62.8926918  89.2554317  13.6990958  63.9038976
  88.1224986  16.2632097  54.5186991  87.9976125  15.4621837  54.0097936
  88.7804077  16.7578291  54.0300961  90.1859894  14.0641117  56.1466541
  89.2390229  13.9446468  56.0744868  90.5342667  13.1763615  56.2292802
  87.1906327  13.8593833  52.3470893  87.0431290  12.9310541  52.5278463
  88.0159821  13.8813924  51.8627968  90.7940449  14.6822392  53.4335766
  91.7186997  14.4765254  53.2960217  90.6255752  14.4338793  54.3425107
  90.5835765  15.2008060  48.7897857  90.7572643  14.6354482  48.0371710
  91.0764657  16.0008955  48.6077347  76.4012725   7.2122729  56.8561416
  75.8566193   7.9882537  56.9881690  77.2792075   7.5593533  56.6980538
  91.5710938  14.5174824  45.8894756  92.2661842  15.1381517  46.1082070
  91.9134088  13.6670175  46.1647133  77.1878747   6.3392625  59.7491573
  76.4460483   6.4875260  60.3356203  76.8671491   6.6000891  58.8858322
  85.1322410  15.8808603  59.5471963  85.4409536  15.6357750  60.4194663
  85.9297892  16.0855242  59.0590833  85.1543022  18.0346513  51.7777340
  84.7148012  17.5422892  52.4710196  85.9051139  17.4919481  51.5369415
  77.6335361  14.2258054  51.7801968  78.4593381  13.9261826  51.4000611
  77.2829413  13.4565676  52.2291756  82.6016894  13.5784522  53.8499641
  81.9796903  12.9155227  53.5501869  83.2721761  13.6045654  53.1673289
  75.8343966  12.1444380  52.7390901  74.9975874  11.7166555  52.5574902
  75.8067611  12.3376824  53.6761692  93.1596267  12.6007433  62.7233284
  92.3691811  12.5831572  62.1837784  92.9229622  13.1395727  63.4782321
  82.1630401  12.1288445  47.3258102  82.3118521  12.8123910  46.6724774
  82.9696844  12.1093535  47.8407557  79.9183034   8.1553623  48.3319171
  79.6729076   7.2515953  48.5299381  80.0878948   8.1570773  47.3898649
  85.6625806  14.6236576  44.7969849  85.0899773  15.2426763  44.3440321
  86.2358600  15.1735937  45.3309771  88.8823066  14.9073726  45.9278431
  89.8153739  14.8419288  46.1311307  88.7946279  15.7429993  45.4692964
  91.5111083  14.2239596  42.8882379  91.4324714  13.8899460  43.7818137
  92.3320749  14.7161364  42.8873851  85.9311297  10.0115135  63.5986559
  86.8514307  10.1893734  63.7926605  85.8960880   9.0671180  63.4466258
  78.9273370   7.9216169  56.2409340  79.1459380   8.8533277  56.2597374
  79.3399144   7.5624144  57.0264144  76.9318465   8.7574894  52.3698970
  76.9089153   8.8562581  51.4180853  77.2419101   9.6040044  52.6916136
  79.5905843  10.8151049  56.4845584  80.5449096  10.7834991  56.4175516
  79.3918366  10.3541672  57.2995810  80.1805225   9.3852165  59.0516382
  80.9998114   9.8796243  59.0751219  80.4542032   8.4684133  59.0233949
  77.9456071  16.3570668  53.5015782  77.8110539  15.5971069  52.9353780
  77.5288134  17.0811568  53.0344571  89.0815034  11.5407592  42.5092357
  89.7850885  11.7457594  43.1250013  88.3577683  12.1084354  42.7741441
  81.1025197  17.2539985  53.7134225  80.9857581  18.1985418  53.6112915
  80.2817644  16.9513547  54.1020024  90.9901732  11.9790121  44.5590817
  91.8247336  11.5471319  44.3768292  90.8286075  11.8072135  45.4867712
  87.9593531  10.7871146  65.2500719  88.8284691  10.9611798  64.8887354
  87.4800283  11.6065563  65.1276449  82.1279711  17.9068247  56.9290153
  83.0306958  17.9391857  57.2456648  81.9017082  16.9768698  56.9436489
  83.8833313  16.6599234  53.5900232  82.9328944  16.6601095  53.4764604
  84.1865800  15.9131968  53.0736266  99.6186007  22.4959772  54.6545994
 100.2564417  22.3766519  53.9509334  99.5006850  23.4440616  54.7133946
  96.4275713  22.4487200  54.5907519  96.0894225  22.3328265  53.7028054
  97.2965481  22.0478365  54.5708525  92.2862529  24.3022676  50.5804410
  91.7227394  24.2112613  49.8120698  92.1714924  23.4822581  51.0606902
  96.9095496  23.6022052  60.5493724  96.8984137  23.2074850  59.6774228
  97.0716136  22.8688124  61.1427496  89.8326961  25.7973868  53.4188630
  90.6248253  25.4564693  53.0034930  90.0723611  25.9068843  54.3390784
  97.8662088  27.9693644  45.8918875  97.2150067  28.5547725  45.5052888
  98.6606450  28.4999839  45.9513912  91.7917715  25.0582781  46.2906009
  92.5648591  24.5111768  46.1518885  92.1443114  25.9227031  46.5020470
  93.6302757  26.3859164  59.4972908  93.3392623  27.2904794  59.3819575
  94.2659742  26.4275691  60.2116978  94.5558964  23.7636012  56.0874268
  95.1522536  23.5392035  55.3731231  94.6133936  23.0220758  56.6899716
  94.1283993  21.2175447  43.9224459  94.3809513  20.6956969  43.1607922
  93.1908552  21.0541593  44.0251143  99.1727275  20.2211226  51.7299202
  99.9590365  19.8030649  51.3789619  99.4365980  21.1257318  51.8980851
  99.3437353  25.6584076  46.4287859  98.7083186  25.7318703  47.1408764
  99.0134759  26.2477675  45.7506938 104.5735703  20.1586459  52.6332181
 105.3060875  19.5885676  52.8670010 103.8175058  19.7708059  53.0738686
  93.8480281  23.1203553  46.1248834  93.7316539  22.4448457  46.7929918
  93.9582541  22.6335927  45.3080987  96.1911822  22.5813700  49.8295523
  95.8270030  22.0544321  50.5408445  97.0478938  22.1912170  49.6562009
  95.8317309  17.6103600  44.8256872  95.9991712  18.4783837  45.1927343
  95.6414478  17.7730882  43.9018161  98.5892642  26.0720579  56.4922702
  98.2893366  26.9745618  56.3838509  98.2443702  25.8052762  57.3443855
  92.0405124  22.5234376  52.5259406  91.1155620  22.3910590  52.7337098
  92.2889537  23.3028595  53.0229349 101.9889786  18.5903119  54.1720139
 101.0806664  18.5218528  53.8778900 101.9377382  19.0675064  55.0001965
  95.8106530  20.0661258  45.8103538  95.6906155  20.5118308  46.6489019
  95.1159119  20.4146575  45.2517077  89.4013935  22.1667649  53.3603195
  89.5306316  22.4202128  54.2742607  88.7211386  22.7595357  53.0407851
  93.5713422  32.8364899  49.4593670  93.4937452  33.7872725  49.5382150
  92.9675066  32.4910772  50.1168596  96.0630652  20.0092765  62.1155037
  95.2863986  20.5686685  62.1057901  96.7021215  20.4949548  62.6369907
 103.8551433  16.7919558  55.9498013 103.2125813  17.0852091  55.3037808
 103.3506361  16.6772478  56.7551210 101.5091596  20.5382731  46.6383873
 102.4209452  20.7710118  46.4631570 101.0001243  21.1219775  46.0758951
  94.3177024  22.8178218  61.6773004  95.0591709  23.3563262  61.4007827
  93.6114010  23.4444507  61.8344555  99.7932364  24.9607359  60.2745165
 100.2015720  24.5189769  59.5299797  99.0709625  24.3859986  60.5279358
  96.1463434  19.8979965  57.6478722  96.9924629  20.3219379  57.7913371
  96.0862072  19.2413590  58.3417285 100.1161179  25.5208549  54.0297454
  99.4870041  25.6854263  53.3273522  99.7286841  25.9350159  54.8008418
 103.9950411  26.4562987  51.3841818 103.3101449  26.8361889  50.8338851
 104.0794260  27.0658314  52.1173765  99.2962879  17.5584334  59.3059896
  99.0523811  18.3126394  58.7694171  99.5722810  17.9369681  60.1407143
 101.2501342  24.1022946  57.9837161 101.4618237  24.7454706  57.3071542
 101.2031090  23.2685263  57.5159091  98.8527571  16.7140767  54.8873733
  97.9912050  17.0122020  55.1790471  98.8790006  16.9311166  53.9554766
  95.6689140  25.2582957  51.2947539  96.1327486  25.5370660  50.5052162
  95.4045939  24.3566402  51.1120630  92.5613222  24.8054439  54.2327302
  93.1314579  25.2341707  53.5944787  93.1521333  24.5237024  54.9311488
  94.6058027  21.3806110  48.1037104  95.3082070  21.8327153  48.5711031
  94.2738655  20.7389929  48.7316997  93.0538388  19.9717866  62.4788314
  92.4237049  20.6534147  62.7123710  92.9474476  19.8600948  61.5341452
  88.3483361  19.6389662  53.4054238  87.5582414  19.8947191  52.9294348
  88.8394608  20.4538000  53.5106278 102.3647170  26.9794902  56.1559519
 103.1864614  26.5775089  55.8742200 102.3609573  26.8763136  57.1075634
  90.2998106  20.0034242  50.3637714  89.5029269  20.1152936  50.8821210
  90.0723698  20.3420894  49.4978605  96.1303774  26.5278945  58.3120229
  96.1948206  26.9899352  59.1478401  95.4214697  25.8976310  58.4402539
  86.6321063  19.8920153  55.8369229  86.8829102  20.7767163  56.1026805
  87.1680612  19.7124754  55.0644320  95.8451791  28.1947052  48.1799209
  95.7097466  29.0398588  48.6084057  96.3861604  28.3966330  47.4165143
  92.3319131  14.2738632  64.8413565  91.9386076  13.7204831  65.5161209
  93.1485271  14.5849211  65.2320082  89.2981189  25.7122490  48.7527135
  89.8105709  26.5065741  48.9032699  89.9503901  25.0148781  48.6860736
  91.1076073  28.8288247  50.8349888  91.2842702  29.7506211  50.6470872
  91.9032907  28.5146666  51.2644267  95.2487092  15.6896511  62.4333821
  95.9896805  16.2903664  62.3538284  95.4805015  14.9474149  61.8751864
  90.3928430  20.8752879  60.7112051  90.2781945  19.9738136  61.0119150
  89.5372948  21.1216575  60.3596867  97.4720268  28.8170619  62.3099552
  97.0284122  28.0306997  61.9920456  98.1337481  29.0049769  61.6443442
  92.2307389  30.3466420  56.8360230  92.7814814  30.2183484  56.0637224
  91.3918865  30.6461310  56.4855123  99.5701506  29.0973419  60.3380953
  99.5519981  29.9182300  59.8461222 100.4921426  28.9727494  60.5631094
  96.0274560  26.6117548  61.1804461  96.5602897  25.8505837  60.9503769
  95.4988641  26.3191200  61.9228616  87.2630105  24.0411145  49.5286705
  88.1005327  24.4508153  49.3120413  87.4408373  23.1010587  49.4986899
  99.1594537  21.7086225  45.2170538  98.6441161  22.4790830  45.4558925
  98.8871846  21.0351362  45.8403599  96.7441648  16.5535926  50.2755776
  95.8883245  16.1642777  50.0961415  97.1568600  16.6327887  49.4155562
  98.2740795  14.0882269  54.6747336  97.7705591  14.0512405  53.8615141
  98.5671402  14.9975012  54.7343993  94.5183681  14.1720999  53.6813518
  95.3836678  13.9763808  53.3219407  94.5861190  13.9431351  54.6082875
 104.1328812  24.4618580  47.1523711 103.3558254  24.1229740  46.7078874
 104.8120293  24.4671203  46.4778677  98.9480841  19.5813317  47.0430319
  98.6430976  19.8959467  47.8940462  99.9011283  19.6594737  47.0857652
  97.3927272  25.7403541  48.6923273  96.8648634  25.0056300  48.3796511
  96.8914775  26.5178217  48.4463241 102.3720118  23.9352561  53.8090319
 101.7143793  24.6251823  53.8970448 103.1760518  24.3248993  54.1524306
  92.1246000  16.4023207  51.0529885  92.6989752  16.1798389  50.3203078
  92.7116983  16.4711902  51.8058486 101.1825577  22.2896934  51.8594261
 101.6957459  22.9226926  52.3615971 101.8326801  21.6898129  51.4937621
  92.4515587  18.4327668  45.0725770  91.6152899  18.7702355  45.3935045
  92.3120357  18.2976648  44.1352907  94.4268668  13.2764456  49.7804954
  93.7733080  12.9613473  49.1561569  94.3849142  12.6540196  50.5064777
  95.5379873  23.5583751  41.6958246  94.6306934  23.3273005  41.8949395
  96.0350905  22.7621370  41.8832228  98.4447952  32.2681258  44.6154932
  97.7709650  32.5712955  45.2239890  98.8313774  33.0710339  44.2660389
  97.6606408  19.7646390  54.1052602  96.7428970  19.9861337  53.9474290
  98.0766552  19.8392700  53.2464309  98.4441456  21.1637805  49.2355282
  99.1913275  21.6759202  48.9262404  98.7133045  20.8421858  50.0959676
  96.7168106  23.6596346  46.2182236  95.8079325  23.3755379  46.3154706
  96.7463190  24.0795424  45.3585543 101.9487374  27.2702935  49.9873404
 101.4949701  26.4293845  50.0438594 101.3181340  27.9064334  50.3248184
 100.8920293  18.1994921  51.2174071 100.1543050  17.6872308  51.5484314
 101.1447067  17.7595303  50.4057348 100.3920313  29.1079432  50.9223222
 100.6843287  29.6684489  50.2035588 100.9018933  29.4007993  51.6776381
  87.2856276  21.3801860  50.1997438  87.0880676  20.7871221  49.4748505
  86.7302940  21.0754070  50.9173377  95.2653000  21.2724967  52.3192032
  95.3201610  20.3198803  52.2434508  94.4544202  21.4284406  52.8033330
  96.4144194  25.2005090  43.5570315  95.9763624  24.4840949  43.0975952
  97.1554635  25.4281204  42.9955406  93.2045360  19.8902026  50.0782410
  92.3913226  20.1896197  50.4847603  93.7004354  19.4957715  50.7956893
  95.3553938  29.8859783  52.0116675  95.3130117  30.1120630  51.0825207
  96.2716637  29.6523158  52.1602476  98.8019572  20.3543851  58.9097304
  99.1568959  20.5815324  59.7691770  99.4491703  20.6862228  58.2874560
 104.5317309  23.4762287  49.6146633 104.3935207  23.6663883  48.6867823
 104.1753527  24.2381669  50.0714685  92.6959435  17.4620382  55.6943645
  93.3358814  17.3209141  54.9966609  91.8636965  17.1754895  55.3182247
 104.5586688  25.5438814  54.6257905 104.9923195  25.4514103  55.4740959
 105.2718269  25.5196314  53.9877921  93.4719739  26.7622812  51.8078638
  94.2660337  26.2673132  51.6061213  92.7611431  26.2340675  51.4446343
  98.2914583  29.1440908  56.1591006  98.3451605  29.7131844  56.9268721
  97.4229365  29.3142793  55.7945043  89.7802502  20.9065894  47.8838391
  88.8500090  20.8450349  48.1008353  89.8759974  20.3841847  47.0875032
  89.6988051  17.4320707  50.4716632  89.9594869  18.3466040  50.3625793
  90.5205224  16.9645149  50.6213245  91.1712977  18.8458464  57.6415457
  91.8436030  18.6375826  56.9928106  90.3442763  18.6480550  57.2020689
 105.4202238  25.5862514  57.1590790 105.6138128  26.4908325  57.4050065
 105.3202856  25.1269933  57.9929375  97.0738549  15.4720405  59.6581118
  96.4266464  16.1710355  59.5645594  97.8439564  15.9056549  60.0257366
 100.4817347  25.7369257  62.7331671 100.3302853  25.5079809  61.8161755
 100.4722026  26.6939858  62.7463016  97.2502683  23.3101170  57.7177937
  98.1794743  23.4612329  57.5446905  96.8293713  23.3985191  56.8626584
  96.0491015  27.3351834  55.4876475  95.9102100  26.9670619  56.3602413
  95.2605611  27.8499474  55.3160433  96.6439167  32.4360931  46.8302012
  96.8190922  31.9648974  47.6447634  95.9571955  33.0626697  47.0583272
  97.5996230  26.7133437  52.8765313  97.2646062  26.6734207  53.7722963
  97.1000176  26.0478153  52.4035723  91.5740474  22.1201067  58.4017894
  91.4360272  21.3881306  59.0029433  92.4845397  22.0309967  58.1202082
 100.5355422  24.0589471  43.1502372  99.9184592  23.3336299  43.0535425
 100.0671910  24.8198832  42.8069447  94.2022774  21.8321026  57.8901574
  94.9122393  21.1914218  57.8488192  94.1592083  22.0833921  58.8127754
 102.1909553  28.7688380  60.8108153 102.1322099  28.0847600  60.1438736
 102.5929072  29.5107370  60.3588779  92.9151708  18.8186244  59.7097213
  92.3789065  18.3676983  60.3618809  92.3268417  18.9532153  58.9667677
  91.2100252  35.5850293  53.6041872  91.4496850  36.2168818  54.2820890
  90.3669448  35.2338333  53.8907231  92.3253967  18.2774896  42.2723677
  91.4483434  18.1563696  41.9085923  92.8011720  17.4860974  42.0202565
 102.1926960  26.7327964  59.0422132 101.3053739  26.3953885  59.1648531
 102.7625511  26.0010995  59.2790898  83.8456108  23.0652055  52.3665184
  84.5327147  22.7513785  51.7786199  83.6904236  23.9693420  52.0932435
  88.6490830  17.9542252  56.7950208  88.5649018  17.3467921  56.0600617
  87.8273536  18.4451270  56.7959704  95.7228114  31.3929416  56.0083376
  95.6498285  32.1984387  56.5202680  95.2805507  31.5921382  55.1831397
  95.5117893  30.6301186  49.5186197  94.7285415  31.1722866  49.6124422
  96.2110639  31.1475166  49.9180438  98.8214544  16.4395815  52.1620403
  99.3183243  15.6865778  51.8421473  98.0501525  16.4760132  51.5963612
  98.1826797  31.2916250  58.1641534  98.8954770  31.9263715  58.0917436
  97.6916826  31.3880116  57.3481536  99.9044324  25.1967503  49.7358826
  98.9700603  25.3168965  49.5663530 100.0820993  24.2939969  49.4718836
  95.4049512  18.5813198  51.8892087  95.0347300  18.0284239  52.5772993
  95.9008605  17.9771332  51.3367087 103.2916876  21.0384822  50.2708860
 103.7577328  21.8712813  50.1969163 103.7424376  20.5729803  50.9754119
  93.2338711  29.0410693  58.9847105  93.9348170  29.6747176  59.1376499
  92.7633826  29.3825425  58.2242744 101.3593107  27.3828643  47.2695012
 101.6352951  27.2685238  48.1788886 100.4897605  26.9846128  47.2307185
 101.0339997  21.5955301  56.8099656 100.3811447  21.8431208  56.1552108
 101.4120377  20.7819439  56.4762133  97.9947171  31.6314994  50.9127826
  98.1769565  30.8136650  51.3755578  98.8180157  31.8482686  50.4752716
  98.3289336  30.5583179  48.1742874  98.8577103  30.0475634  47.5613036
  98.5917556  30.2425709  49.0388407  97.0827570  22.3375112  63.2965693
  96.4068207  22.2369241  63.9668068  97.9055204  22.1814326  63.7601690
  88.8306429  28.5747048  55.9178208  89.4159866  27.8290736  56.0506112
  88.6331267  28.8851005  56.8014872  91.6845084  31.6098296  50.9340650
  91.0155459  32.0944423  50.4504690  91.5457954  31.8567516  51.8484029
  83.4224084  21.1452649  54.6382651  83.4608183  20.6116239  55.4319769
  82.9164377  20.6187854  54.0193628  95.8250353  33.6442039  57.5323309
  96.3768661  33.8073661  58.2972394  96.1656546  34.2346477  56.8603333
  90.8014846  15.9917189  58.1345193  90.8656172  16.8532020  57.7222591
  90.7381966  15.3791191  57.4017552  90.2767119  18.0640322  61.7818228
  90.9039157  17.6817399  62.3955752  89.4195037  17.8454524  62.1473920
 100.6761227  28.4703297  63.3871963 101.2201131  29.0833255  62.8926918
 100.0948072  29.0282875  63.9038976  87.0532661  19.8716751  47.7136582
  87.3486102  18.9627429  47.6603636  86.1520697  19.8504490  47.3917585
  98.9618740  31.5924015  54.5186991  98.8369879  30.7913755  54.0097936
  99.6197831  32.0870208  54.0300961  90.5826908  17.9472747  53.6964131
  89.8613494  18.5608715  53.5571604  91.3720164  18.4830512  53.6180777
 101.0253648  29.3933035  56.1466541 100.0783984  29.2738386  56.0744868
 101.3736422  28.5055533  56.2292802  93.3853222  15.2827174  59.9704783
  93.9087624  15.5289470  60.7331092  93.1665555  16.1147209  59.5507920
  88.7820503  17.5530848  47.8375908  88.4533209  16.6728227  47.6551013
  89.1359874  17.4978517  48.7252297  98.0300082  29.1885751  52.3470893
  97.8825044  28.2602459  52.5278463  98.8553575  29.2105842  51.8627968
  91.8962326  17.8403818  48.2051385  92.2358399  18.3689739  47.4829994
  92.3434446  18.1784224  48.9809952 101.6334204  30.0114310  53.4335766
 102.5580751  29.8057171  53.2960217 101.4649507  29.7630711  54.3425107
  94.5905767  16.2240869  57.6554453  94.2502587  15.4248682  58.0575133
  93.8844773  16.5242580  57.0831286  95.2422239  13.3090181  56.1081776
  96.0648308  12.8350660  55.9860667  95.4860302  14.0880665  56.6080463
  93.8830473  16.3378440  46.4044678  94.6038836  16.7159693  45.9008395
  93.2595777  17.0567317  46.5079656  98.0261596  17.0423589  47.3403010
  98.2425210  17.9248227  47.0391838  97.5455663  16.6509802  46.6108652
  92.7660817  20.0009302  53.9173755  92.6205398  20.3149605  54.8098036
  92.2886021  20.6194202  53.3644654  94.6257200  16.9911850  53.9654644
  94.6118769  16.0952943  53.6286942  95.3429628  16.9982514  54.5992931
  96.4783331  17.4249190  56.0107772  96.2201109  18.3466261  56.0092102
  95.9468371  17.0279625  56.7008236 101.4229520  30.5299977  48.7897857
 101.5966397  29.9646400  48.0371710 101.9158411  31.3300872  48.6077347
  87.2406480  22.5414646  56.8561416  86.6959948  23.3174454  56.9881690
  88.1185829  22.8885451  56.6980538  94.0294096  15.8726230  49.2342215
  94.1510007  14.9442876  49.4333102  93.7396139  15.8864916  48.3220530
 102.4104692  29.8466742  45.8894756 103.1055597  30.4673434  46.1082070
 102.7527842  28.9962093  46.1647133  88.0272501  21.6684543  59.7491573
  87.2854237  21.8167178  60.3356203  87.7065246  21.9292808  58.8858322
 104.3096115  27.2966447  47.4182086 104.8347439  27.6353720  46.6931406
 104.2218468  26.3613463  47.2345221  95.9716164  31.2100521  59.5471963
  96.2803291  30.9649668  60.4194663  96.7691646  31.4147159  59.0590833
  95.9936776  33.3638431  51.7777340  95.5541766  32.8714809  52.4710196
  96.7444893  32.8211398  51.5369415  88.4729115  29.5549971  51.7801968
  89.2987135  29.2553743  51.4000611  88.1223167  28.7857594  52.2291756
  93.4410648  28.9076440  53.8499641  92.8190658  28.2447145  53.5501869
  94.1115515  28.9337572  53.1673289  86.6737720  27.4736298  52.7390901
  85.8369628  27.0458472  52.5574902  86.6461366  27.6668741  53.6761692
  93.5135176  17.3858228  63.4432147  93.5623331  18.2620350  63.0609917
  94.0557690  16.8435621  62.8703790 103.9990021  27.9299351  62.7233284
 103.2085565  27.9123490  62.1837784 103.7623376  28.4687645  63.4782321
 104.1187896  24.7791817  60.0366013 104.1685901  24.6141825  60.9781536
 104.0101820  23.9119076  59.6463894  93.0024155  27.4580363  47.3258102
  93.1512276  28.1415827  46.6724774  93.8090599  27.4385453  47.8407557
 101.4091659  20.7622745  61.3525320 102.3101522  20.6229210  61.0609317
 101.4839633  20.9277200  62.2923497  95.7434464  18.1389600  60.1978506
  94.8737774  18.4323166  59.9261094  95.9793945  18.7230045  60.9185769
 105.6206093  27.1988759  60.2808034 105.3290902  27.5618739  61.1171495
 105.0078225  26.4855767  60.1021366 103.8693282  22.3221373  58.7488092
 104.3447403  22.5149020  57.9406944 102.9458847  22.3780559  58.5031476
  90.7576788  23.4845541  48.3319171  90.5122830  22.5807871  48.5299381
  90.9272703  23.4862691  47.3898649  98.4473498  14.3569217  57.7143926
  98.9655442  15.0930244  57.3890415  98.0928631  14.6633210  58.5490685
  90.0272436  19.2173898  45.8305332  89.3341681  19.2918253  45.1745368
  89.7824188  18.4534242  46.3526849  96.5019561  29.9528493  44.7969849
  95.9293528  30.5718681  44.3440321  97.0752354  30.5027855  45.3309771
 102.5694951  19.1987134  56.9816398 103.5212373  19.2985231  57.0028622
 102.3998401  18.4065402  57.4914482 100.5909330  16.2842717  57.1675799
  99.9959262  16.5647729  56.4722287 100.3059027  16.7736618  57.9392540
  99.7216820  30.2365644  45.9278431 100.6547494  30.1711205  46.1311307
  99.6340033  31.0721910  45.4692964 102.3504837  29.5531514  42.8882379
 102.2718469  29.2191378  43.7818137 103.1714504  30.0453282  42.8873851
 105.0483028  22.4193253  56.0958698 105.0159348  21.4809254  56.2818381
 105.6583652  22.4977290  55.3624522  96.8866359  21.2889306  42.1385902
  97.8325464  21.1595514  42.2074320  96.5080604  20.5503968  42.6155330
 105.1977517  19.2104297  56.1416981 104.6816565  18.4262753  55.9546910
 106.0817465  18.8823013  56.3063500  96.7705052  25.3407052  63.5986559
  97.6908061  25.5185651  63.7926605  96.7354635  24.3963098  63.4466258
  95.0709276  19.2139283  42.0740787  94.1640732  18.9172395  42.1503500
  95.3485257  18.9169101  41.2075073  85.9887217  20.5345646  52.5239833
  85.6690001  19.6810954  52.2314207  85.4420645  20.7494224  53.2797801
  89.7667124  23.2508087  56.2409340  89.9853134  24.1825195  56.2597374
  90.1792898  22.8916061  57.0264144  96.6871342  13.7576172  48.2285028
  95.8772070  13.4123257  48.6040274  97.3755759  13.4483716  48.8172640
  94.6394990  18.8241293  65.6312089  94.5391717  19.7735650  65.5624180
  94.4216532  18.4959532  64.7588159  93.8408061  16.0726218  42.2152766
  94.7027225  16.3981116  42.4748583  94.0258405  15.2857714  41.7025832
  85.8575477  24.1548557  54.4932955  85.1638948  23.7402510  53.9802909
  86.6048468  24.1969094  53.8966374  94.5026260  22.2538432  64.4477150
  94.0193341  23.0538792  64.6541039  94.5887199  22.2646376  63.4944594
  87.7712219  24.0866811  52.3698970  87.7482907  24.1854499  51.4180853
  88.0812856  24.9331962  52.6916136  90.4299597  26.1442966  56.4845584
  91.3842851  26.1126909  56.4175516  90.2312121  25.6833590  57.2995810
  91.0198979  24.7144082  59.0516382  91.8391868  25.2088161  59.0751219
  91.2935787  23.7976050  59.0233949 100.7765575  17.1054835  48.4144337
  99.8891431  17.3904485  48.1964532 101.1919565  16.9448598  47.5671614
 104.1280112  17.1301356  52.1298677 104.9040502  17.6197808  52.4023293
 103.4028246  17.5559410  52.5870546  88.7849826  31.6862586  53.5015782
  88.6504294  30.9262987  52.9353780  88.3681888  32.4103486  53.0344571
  99.9208789  26.8699509  42.5092357 100.6244639  27.0749512  43.1250013
  99.1971438  27.4376271  42.7741441 100.7506599  22.6209371  48.6294627
 100.6941801  23.0777922  47.7902260 101.3034942  21.8600055  48.4517470
 104.5611405  18.4099102  49.4544747 104.3048339  18.0095738  50.2852955
 103.9364273  19.1242896  49.3294886  91.9418952  32.5831903  53.7134225
  91.8251336  33.5277335  53.6112915  91.1211398  32.2805464  54.1020024
 101.8295486  27.3082039  44.5590817 102.6641090  26.8763237  44.3768292
 101.6679829  27.1364052  45.4867712 101.4841379  23.8114152  45.9247157
 101.4290182  23.6458423  44.9835601 100.8587434  24.5190185  46.0809346
  86.2733894  19.0482216  59.7508579  86.9192757  18.5381170  60.2395804
  86.0651045  19.7850898  60.3252004  98.7987286  26.1163064  65.2500719
  99.6678445  26.2903716  64.8887354  98.3194037  26.9357481  65.1276449
  94.7937504  13.3122261  45.5032475  94.7816174  14.2564101  45.6600746
  95.6860926  13.1292406  45.2091936  92.9673466  33.2360165  56.9290153
  93.8700713  33.2683775  57.2456648  92.7410836  32.3060616  56.9436489
  94.7227068  31.9891151  53.5900232  93.7722699  31.9893013  53.4764604
  95.0259554  31.2423886  53.0736266  90.6131385  16.1949833  63.8483593
  91.4762846  15.8386638  64.0586918  90.0396795  15.8563728  64.5358997
 103.1256283  39.6314594  50.5804410 102.5621149  39.5404531  49.8120698
 103.0108678  38.8114499  51.0606902 100.6720715  41.1265786  53.4188630
 101.4642007  40.7856610  53.0034930 100.9117366  41.2360761  54.3390784
 102.6311469  40.3874699  46.2906009 103.4042345  39.8403686  46.1518885
 102.9836868  41.2518948  46.5020470 104.4696512  41.7151081  59.4972908
 104.1786378  42.6196712  59.3819575 105.1053496  41.7567609  60.2116978
 105.3952719  39.0927930  56.0874268 105.9916291  38.8683952  55.3731231
 105.4527690  38.3512675  56.6899716 104.9677747  36.5467365  43.9224459
 105.2203268  36.0248886  43.1607922 104.0302306  36.3833511  44.0251143
 104.6874036  38.4495471  46.1248834 104.5710294  37.7740374  46.7929918
 104.7976296  37.9627845  45.3080987 102.8798878  37.8526294  52.5259406
 101.9549375  37.7202508  52.7337098 103.1283292  38.6320513  53.0229349
 100.2407689  37.4959567  53.3603195 100.3700071  37.7494046  54.2742607
  99.5605141  38.0887275  53.0407851 104.4107177  48.1656817  49.4593670
 104.3331206  49.1164642  49.5382150 103.8068820  47.8202690  50.1168596
 105.1570779  38.1470136  61.6773004 105.8985463  38.6855180  61.4007827
 104.4507764  38.7736425  61.8344555 103.4006976  40.1346357  54.2327302
 103.9708333  40.5633625  53.5944787 103.9915088  39.8528941  54.9311488
 103.8932143  35.3009784  62.4788314 103.2630803  35.9826065  62.7123710
 103.7868230  35.1892866  61.5341452  99.1877115  34.9681580  53.4054238
  98.3976169  35.2239109  52.9294348  99.6788362  35.7829918  53.5106278
 101.1391860  35.3326159  50.3637714 100.3423024  35.4444854  50.8821210
 100.9117453  35.6712812  49.4978605  97.4714818  35.2212071  55.8369229
  97.7222856  36.1059080  56.1026805  98.0074366  35.0416672  55.0644320
 103.1712885  29.6030550  64.8413565 102.7779831  29.0496748  65.5161209
 103.9879026  29.9141128  65.2320082 100.1374943  41.0414408  48.7527135
 100.6499464  41.8357658  48.9032699 100.7897656  40.3440699  48.6860736
 101.9469828  44.1580164  50.8349888 102.1236456  45.0798129  50.6470872
 102.7426661  43.8438584  51.2644267 101.2322184  36.2044796  60.7112051
 101.1175699  35.3030054  61.0119150 100.3766702  36.4508493  60.3596867
 103.0701143  45.6758338  56.8360230 103.6208568  45.5475402  56.0637224
 102.2312619  45.9753227  56.4855123  98.1023860  39.3703062  49.5286705
  98.9399082  39.7800071  49.3120413  98.2802128  38.4302505  49.4986899
 102.9639755  31.7315125  51.0529885 103.5383506  31.5090306  50.3203078
 103.5510737  31.8003819  51.8058486 103.2909342  33.7619586  45.0725770
 102.4546654  34.0994272  45.3935045 103.1514111  33.6268566  44.1352907
 105.2662422  28.6056374  49.7804954 104.6126835  28.2905391  49.1561569
 105.2242896  27.9832114  50.5064777  98.1250031  36.7093778  50.1997438
  97.9274431  36.1163138  49.4748505  97.5696695  36.4045988  50.9173377
 104.0439115  35.2193944  50.0782410 103.2306980  35.5188115  50.4847603
 104.5398109  34.8249633  50.7956893 103.5353189  32.7912299  55.6943645
 104.1752569  32.6501059  54.9966609 102.7030720  32.5046813  55.3182247
 104.3113493  42.0914730  51.8078638 105.1054092  41.5965050  51.6061213
 103.6005186  41.5632593  51.4446343 100.6196257  36.2357812  47.8838391
  99.6893845  36.1742267  48.1008353 100.7153729  35.7133764  47.0875032
 100.5381806  32.7612624  50.4716632 100.7988623  33.6757958  50.3625793
 101.3598978  32.2937067  50.6213245 102.0106731  34.1750382  57.6415457
 102.6829784  33.9667744  56.9928106 101.1836518  33.9772468  57.2020689
 102.4134228  37.4492985  58.4017894 102.2754026  36.7173223  59.0029433
 103.3239152  37.3601885  58.1202082 105.0416529  37.1612944  57.8901574
 105.7516148  36.5206136  57.8488192 104.9985837  37.4125839  58.8127754
 103.7545463  34.1478162  59.7097213 103.2182820  33.6968900  60.3618809
 103.1662171  34.2824071  58.9667677 102.0494006  50.9142211  53.6041872
 102.2890605  51.5460735  54.2820890 101.2063203  50.5630251  53.8907231
 103.1647722  33.6066813  42.2723677 102.2877188  33.4855614  41.9085923
 103.6405475  32.8152892  42.0202565  94.6849862  38.3943973  52.3665184
  95.3720902  38.0805703  51.7786199  94.5297991  39.2985338  52.0932435
  99.4884584  33.2834170  56.7950208  99.4042773  32.6759839  56.0600617
  98.6667291  33.7743188  56.7959704 104.0732465  44.3702611  58.9847105
 104.7741925  45.0039094  59.1376499 103.6027580  44.7117343  58.2242744
 102.5238839  46.9390213  50.9340650 101.8549214  47.4236341  50.4504690
 102.3851708  47.1859434  51.8484029  94.2617838  36.4744566  54.6382651
  94.3001938  35.9408157  55.4319769  93.7558131  35.9479772  54.0193628
 101.6408600  31.3209107  58.1345193 101.7049927  32.1823938  57.7222591
 101.5775721  30.7083108  57.4017552 101.1160873  33.3932239  61.7818228
 101.7432912  33.0109317  62.3955752 100.2588792  33.1746441  62.1473920
  97.8926416  35.2008668  47.7136582  98.1879857  34.2919347  47.6603636
  96.9914452  35.1796408  47.3917585 101.4220663  33.2764665  53.6964131
 100.7007249  33.8900633  53.5571604 102.2113919  33.8122430  53.6180777
 104.2246976  30.6119092  59.9704783 104.7481378  30.8581388  60.7331092
 104.0059310  31.4439126  59.5507920  99.6214257  32.8822766  47.8375908
  99.2926963  32.0020145  47.6551013  99.9753628  32.8270435  48.7252297
 102.7356080  33.1695736  48.2051385 103.0752153  33.6981657  47.4829994
 103.1828201  33.5076142  48.9809952 105.4299521  31.5532787  57.6554453
 105.0896342  30.7540600  58.0575133 104.7238528  31.8534497  57.0831286
 104.7224228  31.6670358  46.4044678 105.4432590  32.0451610  45.9008395
 104.0989532  32.3859234  46.5079656 103.6054572  35.3301220  53.9173755
 103.4599153  35.6441523  54.8098036 103.1279776  35.9486120  53.3644654
  98.0800234  37.8706564  56.8561416  97.5353702  38.6466372  56.9881690
  98.9579584  38.2177369  56.6980538 104.8687851  31.2018148  49.2342215
 104.9903762  30.2734794  49.4333102 104.5789893  31.2156834  48.3220530
  98.8666256  36.9976460  59.7491573  98.1247992  37.1459096  60.3356203
  98.5459000  37.2584726  58.8858322  99.3122870  44.8841889  51.7801968
 100.1380890  44.5845661  51.4000611  98.9616922  44.1149512  52.2291756
 104.2804403  44.2368357  53.8499641 103.6584412  43.5739062  53.5501869
 104.9509270  44.2629489  53.1673289  97.5131475  42.8028216  52.7390901
  96.6763383  42.3750390  52.5574902  97.4855120  42.9960659  53.6761692
 104.3528930  32.7150145  63.4432147 104.4017086  33.5912268  63.0609917
 104.8951444  32.1727538  62.8703790 103.8417910  42.7872281  47.3258102
 103.9906030  43.4707745  46.6724774 104.6484353  42.7677371  47.8407557
 101.5970543  38.8137458  48.3319171 101.3516585  37.9099788  48.5299381
 101.7666457  38.8154609  47.3898649 100.8666190  34.5465816  45.8305332
 100.1735435  34.6210171  45.1745368 100.6217942  33.7826160  46.3526849
  96.8280971  35.8637564  52.5239833  96.5083756  35.0102872  52.2314207
  96.2814399  36.0786142  53.2797801 100.6060879  38.5800005  56.2409340
 100.8246889  39.5117112  56.2597374 101.0186653  38.2207979  57.0264144
 105.4788744  34.1533210  65.6312089 105.3785471  35.1027567  65.5624180
 105.2610286  33.8251449  64.7588159 104.6801815  31.4018135  42.2152766
 105.5420979  31.7273034  42.4748583 104.8652160  30.6149631  41.7025832
  96.6969231  39.4840475  54.4932955  96.0032703  39.0694428  53.9802909
  97.4442222  39.5261012  53.8966374 105.3420014  37.5830349  64.4477150
 104.8587096  38.3830709  64.6541039 105.4280953  37.5938294  63.4944594
  98.6105974  39.4158729  52.3698970  98.5876662  39.5146416  51.4180853
  98.9206610  40.2623880  52.6916136 101.2693352  41.4734884  56.4845584
 102.2236605  41.4418826  56.4175516 101.0705875  41.0125508  57.2995810
 101.8592734  40.0436000  59.0516382 102.6785623  40.5380079  59.0751219
 102.1329541  39.1267968  59.0233949  99.6243580  47.0154503  53.5015782
  99.4898048  46.2554904  52.9353780  99.2075643  47.7395403  53.0344571
 102.7812706  47.9123820  53.7134225 102.6645090  48.8569253  53.6112915
 101.9605153  47.6097382  54.1020024  97.1127648  34.3774134  59.7508579
  97.7586512  33.8673088  60.2395804  96.9044799  35.1142816  60.3252004
 103.8067220  48.5652082  56.9290153 104.7094467  48.5975693  57.2456648
 103.5804590  47.6352533  56.9436489 105.5620822  47.3183069  53.5900232
 104.6116453  47.3184931  53.4764604 105.8653309  46.5715803  53.0736266
 101.4525139  31.5241751  63.8483593 102.3156601  31.1678556  64.0586918
 100.8790550  31.1855646  64.5358997 105.1011593  51.8036484  54.6382651
 105.1395692  51.2700075  55.4319769 104.5951885  51.2771690  54.0193628
  91.2100253  12.5912416  40.3287178  91.4496851  13.2230940  41.0066197
  90.3669450  12.2400456  40.6152538 103.1256285  16.6376717  37.3049716
 102.5621150  16.5466654  36.5366004 103.0108680  15.8176621  37.7852209
 100.6720717  18.1327908  40.1433937 101.4642009  17.7918733  39.7280236
 100.9117367  18.2422883  41.0636090 102.6311471  17.3936822  33.0151316
 103.4042347  16.8465809  32.8764191 102.9836869  18.2581071  33.2265777
 104.4696513  18.7213204  46.2218215 104.1786379  19.6258835  46.1064881
 105.1053497  18.7629731  46.9362285 102.8798880  14.8588416  39.2504713
 101.9549376  14.7264630  39.4582405 103.1283293  15.6382635  39.7474655
 100.2407691  14.5021690  40.0848502 100.3700072  14.7556169  40.9987914
  99.5605142  15.0949398  39.7653157 104.4107178  25.1718940  36.1838976
 104.3331208  26.1226765  36.2627457 103.8068822  24.8264812  36.8413903
 103.4006977  17.1408479  40.9572609 103.9708334  17.5695748  40.3190093
 103.9915089  16.8591064  41.6556795 100.1374944  18.0476531  35.4772441
 100.6499465  18.8419781  35.6278006 100.7897657  17.3502821  35.4106043
 101.9469829  21.1642287  37.5595194 102.1236457  22.0860252  37.3716178
 102.7426663  20.8500706  37.9889574  98.1023861  16.3765185  36.2532012
  98.9399083  16.7862193  36.0365719  98.2802129  15.4364627  36.2232206
  98.1250032  13.7155900  36.9242745  97.9274432  13.1225261  36.1993812
  97.5696696  13.4108111  37.6418684 104.3113494  19.0976852  38.5323945
 105.1054093  18.6027173  38.3306520 103.6005187  18.5694716  38.1691650
 102.0494008  27.9204334  40.3287178 102.2890606  28.5522858  41.0066197
 101.2063204  27.5692374  40.6152538  94.6849863  15.4006096  39.0910491
  95.3720903  15.0867826  38.5031506  94.5297992  16.3047460  38.8177742
 104.0732467  21.3764734  45.7092412 104.7741926  22.0101217  45.8621806
 103.6027582  21.7179465  44.9488051  99.6700185  20.9101089  42.6423514
 100.2553622  20.1644777  42.7751419  99.4725023  21.2205045  43.5260178
 102.5238840  23.9452336  37.6585957 101.8549215  24.4298464  37.1749997
 102.3851710  24.1921557  38.5729335  94.2617839  13.4806689  41.3627958
  94.3001939  12.9470280  42.1565076  93.7558132  12.9541894  40.7438935
  98.0800235  14.8768687  43.5806723  97.5353703  15.6528495  43.7126997
  98.9579585  15.2239491  43.4225844  98.8666257  14.0038583  46.4736880
  98.1247993  14.1521218  47.0601510  98.5459001  14.2646849  45.6103629
  99.3122871  21.8904012  38.5047274 100.1380891  21.5907784  38.1245918
  98.9616923  21.1211634  38.9537063 104.2804404  21.2430480  40.5744948
 103.6584413  20.5801185  40.2747176 104.9509271  21.2691612  39.8918596
  97.5131476  19.8090338  39.4636208  96.6763384  19.3812513  39.2820209
  97.4855121  20.0022781  40.4006999 103.8417911  19.7934403  34.0503408
 103.9906031  20.4769868  33.3970081 104.6484354  19.7739493  34.5652864
 101.5970544  15.8199581  35.0564477 101.3516586  14.9161911  35.2544687
 101.7666458  15.8216731  34.1143955 100.6060880  15.5862127  42.9654646
 100.8246890  16.5179235  42.9842680 101.0186654  15.2270102  43.7509450
  96.6969232  16.4902598  41.2178261  96.0032704  16.0756551  40.7048216
  97.4442223  16.5323134  40.6211680  98.6105975  16.4220852  39.0944276
  98.5876663  16.5208539  38.1426159  98.9206612  17.2686002  39.4161442
 101.2693353  18.4797007  43.2090891 102.2236606  18.4480949  43.1420822
 101.0705876  18.0187630  44.0241117 101.8592735  17.0498123  45.7761688
 102.6785624  17.5442201  45.7996526 102.1329543  16.1330091  45.7479256
  99.6243582  24.0216626  40.2261089  99.4898050  23.2617027  39.6599087
  99.2075644  24.7457526  39.7589878 102.7812708  24.9185943  40.4379531
 102.6645092  25.8631376  40.3358222 101.9605154  24.6159505  40.8265331
 103.8067222  25.5714205  43.6535460 104.7094468  25.6037815  43.9701955
 103.5804592  24.6414656  43.6681796 105.5620824  24.3245192  40.3145538
 104.6116455  24.3247053  40.2009911 105.8653310  23.5777926  39.7981573
 105.1011594  28.8098607  41.3627958 105.1395693  28.2762197  42.1565076
 104.5951887  28.2833812  40.7438935  15.6354796  44.8823435  95.9901149
  15.5568428  44.5483299  96.8836907  16.4564463  45.3745203  95.9892622
  21.9905801  58.6277483  98.9937645  21.3393781  59.2131563  98.6071659
  22.7850164  59.1583678  99.0532683  15.9161428  55.7166620  99.3924779
  16.6892304  55.1695607  99.2537655  16.2686827  56.5810870  99.6039241
  18.2527706  51.8759286  97.0243229  18.5053227  51.3540808  96.2626692
  17.3152265  51.7125432  97.1269913  23.4681066  56.3167915  99.5306629
  22.8326899  56.3902542 100.2427534  23.1378473  56.9061514  98.8525709
  17.9723995  53.7787392  99.2267604  17.8560253  53.1032296  99.8948689
  18.0826255  53.2919766  98.4099757  20.3155536  53.2397539 102.9314293
  19.9513743  52.7128160 103.6427215  21.1722652  52.8496008 102.7580779
  19.9561023  48.2687439  97.9275642  20.1235425  49.1367676  98.2946113
  19.7658192  48.4314721  97.0036931  19.9350244  50.7245097  98.9122309
  19.8149869  51.1702147  99.7507789  19.2402832  51.0730414  98.3535847
  17.6957136  63.4948738 102.5612440  17.6181165  64.4456563 102.6400921
  17.0918779  63.1494611 103.2187366  25.6335310  51.1966570  99.7402643
  26.5453166  51.4293957  99.5650340  25.1244957  51.7803614  99.1777721
  28.1194124  57.1146826 104.4860588  27.4345162  57.4945727 103.9357621
  28.2037973  57.7242153 105.2192536  19.7932854  55.9166796 104.3966309
  20.2571200  56.1954499 103.6070932  19.5289652  55.0150241 104.2139400
  18.7301740  52.0389949 101.2055875  19.4325783  52.4910992 101.6729801
  18.3982369  51.3973768 101.8335768  34.5796877  53.9817489 105.6063260
  33.8260585  53.4124887 105.4507265  34.7144418  53.9480154 106.5533895
  19.9695505  58.8530891 101.2817980  19.8341179  59.6982427 101.7102828
  20.5105317  59.0550169 100.5183914  13.4224902  56.3706329 101.8545905
  13.9349423  57.1649580 102.0051470  14.0747615  55.6732620 101.7879506
  15.2319787  59.4872086 103.9368658  15.4086415  60.4090050 103.7489642
  16.0276620  59.1730505 104.3663038  23.2838251  52.3670064  98.3189308
  22.7684874  53.1374669  98.5577696  23.0115559  51.6935200  98.9422370
  28.2572525  55.1202419 100.2542482  27.4801968  54.7813578  99.8097644
  28.9364006  55.1255042  99.5797447  23.0724554  50.2397156 100.1449090
  22.7674690  50.5543306 100.9959233  24.0254996  50.3178576 100.1876423
  21.5170986  56.3987380 101.7942044  20.9892348  55.6640139 101.4815281
  21.0158489  57.1762056 101.5482012  26.4963832  54.5936400 106.9109090
  25.8387506  55.2835662 106.9989218  27.3004231  54.9832832 107.2543076
  25.3069291  52.9480773 104.9613032  25.8201173  53.5810765 105.4634741
  25.9570515  52.3481968 104.5956392  16.5759301  49.0911507  98.1744540
  15.7396613  49.4286194  98.4953815  16.4364070  48.9560487  97.2371677
  19.6623586  54.2167590  94.7977017  18.7550648  53.9856843  94.9968166
  20.1594618  53.4205209  94.9850998  22.5691665  62.9265097  97.7173703
  21.8953364  63.2296794  98.3258661  22.9557487  63.7294178  97.3679160
  22.5685169  51.8221644 102.3374052  23.3156988  52.3343041 102.0281174
  22.8376759  51.5005697 103.1978446  20.8411820  54.3180185  99.3201007
  19.9323039  54.0339218  99.4173476  20.8706903  54.7379263  98.4604314
  26.0731087  57.9286774 103.0892174  25.6193414  57.0877684 103.1457365
  25.4425054  58.5648173 103.4266954  24.5164026  59.7663271 104.0241992
  24.8087001  60.3268328 103.3054358  25.0262647  60.0591832 104.7795151
  20.5387907  55.8588929  96.6589085  20.1007337  55.1424787  96.1994723
  21.2798348  56.0865043  96.0974177  19.4797651  60.5443622 105.1135446
  19.4373830  60.7704468 104.1843978  20.3960350  60.3106997 105.2621247
  28.6561022  54.1346126 102.7165404  28.5178921  54.3247722 101.7886593
  28.2997241  54.8965508 103.1733455  28.6830402  56.2022653 107.7276675
  29.1166908  56.1097942 108.5759729  29.3961983  56.1780153 107.0896691
  17.5963452  57.4206651 104.9097408  18.3904051  56.9256971 104.7079983
  16.8855145  56.8924514 104.5465114  20.7682880  63.0944770  99.9320782
  20.9434636  62.6232813 100.7466405  20.0815668  63.7210536 100.1602043
  21.7239943  57.3717276 105.9784083  21.3889776  57.3318046 106.8741733
  21.2243889  56.7061992 105.5054493  24.6599135  54.7173310  96.2521143
  24.0428306  53.9920138  96.1554195  24.1915624  55.4782670  95.9088217
  16.4497681  48.9358734  95.3742447  15.5727147  48.8147535  95.0104694
  16.9255434  48.1444813  95.1221336  19.6361607  61.2885025 102.6204968
  18.8529129  61.8306705 102.7143192  20.3354352  61.8059004 103.0199209
  30.7988015  52.8020020 106.9057464  30.7877891  53.6844735 106.5351398
  29.9305394  52.4491571 106.7112002  24.0288038  55.8551342 102.8377596
  23.0944317  55.9752804 102.6682301  24.2064706  54.9523808 102.5737606
  27.4160589  51.6968661 103.3727631  27.8821041  52.5296652 103.2987933
  27.8668090  51.2313642 104.0772889  25.4836820  58.0412482 100.3713783
  25.7596664  57.9269077 101.2807657  24.6141319  57.6429967 100.3325956
  22.1190884  62.2898833 104.0146596  22.3013279  61.4720489 104.4774349
  22.9423870  62.5066525 103.5771486  22.4533050  61.2167018 101.2761645
  22.9820816  60.7059473 100.6631807  22.7161269  60.9009548 102.1407178
  23.0862454  62.2507854 107.6205761  22.9613593  61.4497594 107.1116707
  23.7441545  62.7454047 107.1319731  25.1497362  60.0516874 109.2485311
  24.2027697  59.9322225 109.1763638  25.4980135  59.1639372 109.3311573
  22.1543795  59.8469590 105.4489663  22.0068758  58.9186297 105.6297233
  22.9797289  59.8689681 104.9646739  25.7577917  60.6698149 106.5354536
  26.6824465  60.4641010 106.3978987  25.5893220  60.4214550 107.4443878
  18.0074187  46.9962279  99.5063448  18.7282549  47.3743532  99.0027165
  17.3839491  47.7151156  99.6098426  22.1505310  47.7007428 100.4421781
  22.3668924  48.5832066 100.1410609  21.6699377  47.3093641  99.7127423
  25.5473233  61.1883816 101.8916628  25.7210111  60.6230239 101.1390480
  26.0402125  61.9884711 101.7096118  31.4012624  53.9520239 103.5106927
  31.8443771  53.2027564 103.1126051  30.5239135  53.9430376 103.1280659
  26.5348406  60.5050581  98.9913526  27.2299310  61.1257273  99.2100841
  26.8771556  59.6545932  99.2665904  28.4339829  57.9550286 100.5200857
  28.9591153  58.2937559  99.7950177  28.3462181  57.0197302 100.3363991
  20.1180490  64.0222269 104.8796110  19.6785480  63.5298648 105.5728967
  20.8688607  63.4795237 104.6388185  17.1267869  58.1164202 100.4276872
  17.2755989  58.7999666  99.7743545  17.9334312  58.0969292 100.9426328
  30.9445489  55.4225478 105.9029375  31.7792381  55.8615282 106.0666935
  31.0804618  54.9464131 105.0837621  14.8820502  54.1429380 101.4337941
  14.6366544  53.2391710 101.6318151  15.0516416  54.1446530 100.4917419
  14.1516149  49.8757737  98.9324102  13.4585394  49.9502092  98.2764138
  13.9067901  49.1118081  99.4545619  20.6263274  60.6112332  97.8988620
  20.0537241  61.2302519  97.4459091  21.1996068  61.1611694  98.4328541
  23.8460534  60.8949482  99.0297202  24.7791207  60.8295044  99.2330077
  23.7583747  61.7305749  98.5711734  26.4748551  60.2115353  95.9901149
  26.3962182  59.8775216  96.8836907  27.2958217  60.7037121  95.9892622
  21.0110073  51.9473145  95.2404672  21.9569177  51.8179353  95.3093090
  20.6324318  51.2087807  95.7174100  34.9903292  54.1393099 108.3383505
  35.7206680  53.8778387 108.8991208  34.3810237  53.4021821 108.3785573
  19.1952990  49.8723121  95.1759557  18.2884445  49.5756234  95.2522271
  19.4728971  49.5752940  94.3093843  17.9651775  46.7310057  95.3171536
  18.8270939  47.0564955  95.5767354  18.1502119  45.9441553  94.8044602
  24.9009289  47.7638674 101.5163108  24.0135144  48.0488324 101.2983302
  25.3163278  47.6032437 100.6690385  24.0452502  57.5283348  95.6111128
  24.7488353  57.7333351  96.2268783  23.3215151  58.0960110  95.8760211
  24.8750313  53.2793209 101.7313398  24.8185514  53.7361761 100.8921030
  25.4278655  52.5183894 101.5536241  28.6855119  49.0682941 102.5563517
  28.4292053  48.6679577 103.3871725  28.0607987  49.7826735 102.4313657
  32.9967457  51.8079015 105.0634809  32.4367015  51.8772204 105.8366371
  32.3910960  51.6319999 104.3434305  25.9539200  57.9665877  97.6609588
  26.7884804  57.5347076  97.4787063  25.7923543  57.7947891  98.5886482
  25.6085092  54.4697991  99.0265927  25.5533896  54.3042262  98.0854371
  24.9831147  55.1774024  99.1828117  34.5823475  68.4835529 107.7564764
  35.2201885  68.3642276 107.0528105  34.4644318  69.4316372 107.8152717
  31.3913181  68.4362957 107.6926289  31.0531693  68.3204021 106.8046824
  32.2602949  68.0354122 107.6727295  27.2499997  70.2898433 103.6823180
  26.6864862  70.1988370 102.9139468  27.1352392  69.4698338 104.1625673
  32.8299556  73.9569401  98.9937645  32.1787535  74.5423481  98.6071659
  33.6243918  74.4875596  99.0532683  26.7555183  71.0458538  99.3924779
  27.5286059  70.4987525  99.2537655  27.1080582  71.9102787  99.6039241
  29.5196432  69.7511769 109.1893038  30.1160004  69.5267791 108.4750001
  29.5771404  69.0096514 109.7918486  29.0921461  67.2051204  97.0243229
  29.3446981  66.6832725  96.2626692  28.1546020  67.0417349  97.1269913
  34.1364743  66.2086982 104.8317973  34.9227833  65.7906406 104.4808390
  34.4003448  67.1133075 104.9999621  34.3074821  71.6459833  99.5306629
  33.6720654  71.7194459 100.2427534  33.9772227  72.2353432  98.8525709
  39.5373171  66.1462216 105.7350951  40.2698343  65.5761432 105.9688781
  38.7812526  65.7583816 106.1757457  28.8117749  69.1079310  99.2267604
  28.6954007  68.4324213  99.8948689  28.9220009  68.6211684  98.4099757
  31.1549290  68.5689457 102.9314293  30.7907498  68.0420078 103.6427215
  32.0116406  68.1787926 102.7580779  37.0598591  59.8583790 110.1945560
  36.7281916  60.7279201 109.9706775  36.4644204  59.5420074 110.8739590
  30.7954777  63.5979357  97.9275642  30.9629180  64.4659593  98.2946113
  30.6051946  63.7606638  97.0036931  33.5530110  72.0596336 109.5941472
  33.2530834  72.9621374 109.4857280  33.2081170  71.7928519 110.4462625
  27.0042592  68.5110133 105.6278177  26.0793088  68.3786347 105.8355869
  27.2527005  69.2904352 106.1248119  36.9527254  64.5778876 107.2738910
  36.0444132  64.5094284 106.9797671  36.9014850  65.0550821 108.1020735
  30.7743998  66.0537014  98.9122309  30.6543623  66.4994065  99.7507789
  30.0796587  66.4022332  98.3535847  28.5350890  78.8240656 102.5612440
  28.4574920  79.7748481 102.6400921  27.9312534  78.4786529 103.2187366
  38.8188901  62.7795314 109.0516784  38.1763281  63.0727847 108.4056578
  38.3143829  62.6648235 109.8569980  36.4729064  66.5258487  99.7402643
  37.3846920  66.7585874  99.5650340  35.9638711  67.1095532  99.1777721
  34.7569832  70.9483115 113.3763935  35.1653188  70.5065526 112.6318568
  34.0347094  70.3735743 113.6298128  31.1100902  65.8855722 110.7497492
  31.9562097  66.3095136 110.8932141  31.0499540  65.2289346 111.4436056
  35.0798647  71.5084306 107.1316224  34.4507509  71.6730020 106.4292292
  34.6924309  71.9225915 107.9027188  34.2600347  63.5460090 112.4078666
  34.0161279  64.3002151 111.8712942  34.5360278  63.9245438 113.2425913
  36.2138810  70.0898703 111.0855932  36.4255705  70.7330463 110.4090313
  36.1668558  69.2561019 110.6177862  33.8165039  62.7016523 107.9892504
  32.9549518  62.9997777 108.2809241  33.8427474  62.9186922 107.0573536
  30.6326609  71.2458714 104.3966309  31.0964954  71.5246417 103.6070932
  30.3683407  70.3442159 104.2139400  27.5250690  70.7930196 107.3346073
  28.0952047  71.2217464 106.6963557  28.1158801  70.5112780 108.0330258
  29.5695495  67.3681866 101.2055875  30.2719538  67.8202910 101.6729801
  29.2376123  66.7265685 101.8335768  23.3120829  65.6265419 106.5073008
  22.5219883  65.8822948 106.0313119  23.8032076  66.4413757 106.6125049
  37.3284638  72.9670658 109.2578289  38.1502082  72.5650845 108.9760971
  37.3247041  72.8638892 110.2094405  25.2635574  65.9909998 103.4656485
  24.4666737  66.1028693 103.9839981  25.0361166  66.3296650 102.5997375
  45.4190631  69.3109407 105.6063260  44.6654340  68.7416805 105.4507265
  45.5538172  69.2772071 106.5533895  30.8089259  74.1822809 101.2817980
  30.6734934  75.0274345 101.7102828  31.3499072  74.3842087 100.5183914
  24.2618657  71.6998247 101.8545905  24.7743177  72.4941497 102.0051470
  24.9141369  71.0024537 101.7879506  26.0713541  74.8164003 103.9368658
  26.2480170  75.7381968 103.7489642  26.8670375  74.5022423 104.3663038
  34.1581723  57.7053371 109.8116873  33.8145992  58.5955013 109.7355984
  34.5260685  57.5155029 108.9486458  22.2267573  70.0286901 102.6305475
  23.0642795  70.4383910 102.4139183  22.4045841  69.0886343 102.6005669
  34.1232005  67.6961982  98.3189308  33.6078629  68.4666587  98.5577696
  33.8509314  67.0227118  98.9422370  31.7079117  62.5411683 103.3774547
  30.8520713  62.1518533 103.1980185  32.1206068  62.6203644 102.5174332
  33.2378263  60.0758026 107.7766107  32.7343059  60.0388161 106.9633912
  33.5308870  60.9850769 107.8362763  29.4821149  60.1596756 106.7832288
  30.3474146  59.9639564 106.4238178  29.5498658  59.9307108 107.7101645
  39.0966280  70.4494337 100.2542482  38.3195722  70.1105496  99.8097644
  39.7757761  70.4546960  99.5797447  33.9118309  65.5689074 100.1449090
  33.6068444  65.8835223 100.9959233  34.8648751  65.6470494 100.1876423
  32.3564741  71.7279297 101.7942044  31.8286102  70.9932057 101.4815281
  31.8552243  72.5053974 101.5482012  37.3357587  69.9228318 106.9109090
  36.6781261  70.6127579 106.9989218  38.1397986  70.3124750 107.2543076
  27.0883468  62.3898964 104.1548655  27.6627220  62.1674145 103.4221848
  27.6754451  62.4587658 104.9077256  36.1463045  68.2772691 104.9613032
  36.6594927  68.9102682 105.4634741  36.7964269  67.6773886 104.5956392
  27.4153055  64.4203425  98.1744540  26.5790367  64.7578111  98.4953815
  27.2757825  64.2852404  97.2371677  29.3906136  59.2640213 102.8823724
  28.7370548  58.9489230 102.2580339  29.3486610  58.6415953 103.6083547
  30.5017341  69.5459508  94.7977017  29.5944402  69.3148761  94.9968166
  30.9988373  68.7497127  94.9850998  33.4085420  78.2557015  97.7173703
  32.7347118  78.5588712  98.3258661  33.7951242  79.0586095  97.3679160
  32.6243876  65.7522146 107.2071372  31.7066438  65.9737093 107.0493060
  33.0404020  65.8268457 106.3483079  33.4078924  67.1513562 102.3374052
  34.1550743  67.6634959 102.0281174  33.6770513  66.8297615 103.1978446
  31.6805574  69.6472103  99.3201007  30.7716793  69.3631135  99.4173476
  31.7100658  70.0671181  98.4604314  36.9124842  73.2578692 103.0892174
  36.4587169  72.4169602 103.1457365  36.2818808  73.8940090 103.4266954
  35.8557761  64.1870678 104.3192842  35.1180518  63.6748064 104.6503084
  36.1084535  63.7471060 103.5076119  35.3557781  75.0955189 104.0241992
  35.6480755  75.6560246 103.3054358  35.8656401  75.3883750 104.7795151
  35.9569388  56.9646930 104.9134611  36.2628265  56.1044293 104.6260526
  36.6821993  57.5564550 104.7133605  22.2493745  67.3677617 103.3016209
  22.0518144  66.7746977 102.5767275  21.6940408  67.0629827 104.0192148
  30.2290468  67.2600723 105.4210802  30.2839078  66.3074560 105.3453279
  29.4181670  67.4160162 105.9052100  31.3781662  71.1880846  96.6589085
  30.9401092  70.4716705  96.1994723  32.1192103  71.4156961  96.0974177
  28.1682828  65.8777783 103.1801181  27.3550694  66.1771953 103.5866373
  28.6641822  65.4833472 103.8975663  30.3191406  75.8735540 105.1135446
  30.2767585  76.0996386 104.1843978  31.2354105  75.6398914 105.2621247
  33.7657040  66.3419607 112.0116075  34.1206427  66.5691080 112.8710541
  34.4129171  66.6737984 111.3893330  39.4954777  69.4638043 102.7165404
  39.3572675  69.6539639 101.7886593  39.1390996  70.2257426 103.1733455
  27.6596903  63.4496138 108.7962416  28.2996282  63.3084897 108.0985379
  26.8274433  63.1630652 108.4201018  39.5224156  71.5314570 107.7276675
  39.9560663  71.4389859 108.5759729  40.2355737  71.5072071 107.0896691
  28.4357207  72.7498569 104.9097408  29.2297805  72.2548889 104.7079983
  27.7248899  72.2216432 104.5465114  33.2552051  75.1316664 109.2609776
  33.3089073  75.7007601 110.0287492  32.3866833  75.3018549 108.8963813
  24.7439970  66.8941651 100.9857161  23.8137558  66.8326106 101.2027123
  24.8397442  66.3717603 100.1893802  24.6625519  63.4196463 103.5735403
  24.9232337  64.3341797 103.4644563  25.4842692  62.9520906 103.7232015
  40.3839706  71.5738271 110.2609561  40.5775596  72.4784081 110.5068836
  40.2840324  71.1145690 111.0948146  32.0376017  61.4596161 112.7599888
  31.3903932  62.1586111 112.6664364  32.8077032  61.8932305 113.1276136
  32.2140151  69.2976926 110.8196708  33.1432211  69.4488086 110.6465675
  31.7931181  69.3860947 109.9645354  31.0128483  73.3227591 108.5895245
  30.8739568  72.9546375 109.4621183  30.2243079  73.8375230 108.4179203
  31.6076635  78.4236687  99.9320782  31.7828390  77.9524730 100.7466405
  30.9209423  79.0502453 100.1602043  32.5633698  72.7009193 105.9784083
  32.2283530  72.6609963 106.8741733  32.0637644  72.0353909 105.5054493
  35.4992890  70.0465228  96.2521143  34.8822060  69.3212056  96.1554195
  35.0309378  70.8074588  95.9088217  27.2891435  64.2650652  95.3742447
  26.4120902  64.1439453  95.0104694  27.7649189  63.4736730  95.1221336
  37.1564428  72.7203720 112.1440903  36.2691207  72.3829642 112.2667302
  37.7262980  71.9886751 112.3809668  30.4755361  76.6176942 102.6204968
  29.6922883  77.1598623 102.7143192  31.1748107  77.1350922 103.0199209
  33.7852012  62.4271572 105.2639173  34.2820711  61.6741534 104.9440243
  33.0138993  62.4635889 104.6982382  41.6381769  68.1311937 106.9057464
  41.6271645  69.0136653 106.5351398  40.7699148  67.7783488 106.7112002
  34.8681792  71.1843259 102.8377596  33.9338071  71.3044722 102.6682301
  35.0458461  70.2815726 102.5737606  30.3686980  64.5688955 104.9910858
  29.9984768  64.0159995 105.6791763  30.8646073  63.9647088 104.4385858
  38.2554344  67.0260578 103.3727631  38.7214796  67.8588570 103.2987933
  38.7061844  66.5605560 104.0772889  36.3230575  73.3704400 100.3713783
  36.5990419  73.2560994 101.2807657  35.4535073  72.9721885 100.3325956
  36.2271006  59.3941165 107.4118532  35.3134086  59.6245392 107.5800739
  36.6564108  59.4779610 108.2632564  35.9977465  67.5831057 109.9118426
  35.3448915  67.8306965 109.2570879  36.3757845  66.7695196 109.5780903
  32.9584639  77.6190751 104.0146596  33.1407033  76.8012407 104.4774349
  33.7817625  77.8358443 103.5771486  33.2926804  76.5458936 101.2761645
  33.8214571  76.0351390 100.6631807  33.5555024  76.2301466 102.1407178
  25.7652314  61.9792946 111.2363964  25.8293640  62.8407777 110.8241361
  25.7019434  61.3666947 110.5036322  22.0170129  65.8592507 100.8155353
  22.3123570  64.9503186 100.7622406  21.1158165  65.8380247 100.4936355
  33.9256208  77.5799771 107.6205761  33.8007348  76.7789511 107.1116707
  34.5835299  78.0745965 107.1319731  25.5464376  63.9348504 106.7982901
  24.8250962  64.5484472 106.6590375  26.3357632  64.4706269 106.7199547
  35.9891116  75.3808792 109.2485311  35.0421452  75.2614143 109.1763638
  36.3373890  74.4931290 109.3311573  23.7457971  63.5406605 100.9394678
  23.4170677  62.6603984 100.7569784  24.0997342  63.4854274 101.8271067
  32.9937550  75.1761508 105.4489663  32.8462512  74.2478215 105.6297233
  33.8191043  75.1981598 104.9646739  26.8599794  63.8279575 101.3070156
  27.1995867  64.3565496 100.5848764  27.3071915  64.1659981 102.0828722
  36.5971672  75.9990066 106.5354536  37.5218219  75.7932928 106.3978987
  36.4286975  75.7506468 107.4443878  29.5543235  62.2116626 110.7573224
  29.2140055  61.4124439 111.1593904  28.8482241  62.5118336 110.1850057
  30.2059707  59.2965938 109.2100547  31.0285776  58.8226416 109.0879437
  30.4497770  60.0756422 109.7099233  28.8467941  62.3254196  99.5063448
  29.5676304  62.7035449  99.0027165  28.2233245  63.0443073  99.6098426
  32.9899064  63.0299345 100.4421781  33.2062678  63.9123983 100.1410609
  32.5093131  62.6385559  99.7127423  27.7298285  65.9885059 107.0192525
  27.5842866  66.3025362 107.9116807  27.2523489  66.6069959 106.4663424
  29.5894668  62.9787607 107.0673415  29.5756237  62.0828700 106.7305713
  30.3067096  62.9858270 107.7011701  31.4420799  63.4124947 109.1126542
  31.1838577  64.3342017 109.1110873  30.9105839  63.0155381 109.8027006
  36.3866988  76.5175734 101.8916628  36.5603865  75.9522156 101.1390480
  36.8795879  77.3176629 101.7096118  28.9931564  61.8601987 102.3360985
  29.1147475  60.9318633 102.5351872  28.7033607  61.8740673 101.4239300
  31.8622755  59.5456897 105.4727705  31.8844451  59.6096230 104.5179684
  32.2790814  58.7061406 105.6668211  42.2406379  69.2812157 103.5106927
  42.6837525  68.5319482 103.1126051  41.3632889  69.2722293 103.1280659
  37.3742160  75.8342498  98.9913526  38.0693065  76.4549191  99.2100841
  37.7165310  74.9837850  99.2665904  39.2733583  73.2842204 100.5200857
  39.7984907  73.6229477  99.7950177  39.1855936  72.3489219 100.3363991
  30.9574244  79.3514187 104.8796110  30.5179234  78.8590566 105.5728967
  31.7082361  78.8087155 104.6388185  27.9661623  73.4456120 100.4276872
  28.1149744  74.1291584  99.7743545  28.7728067  73.4261210 100.9426328
  36.3729127  66.7498502 114.4544090  37.2738990  66.6104967 114.1628088
  36.4477101  66.9152957 115.3942267  30.7071932  64.1265357 113.2997276
  29.8375242  64.4198923 113.0279865  30.9431413  64.7105802 114.0204540
  41.7839244  70.7517395 105.9029375  42.6186135  71.1907199 106.0666935
  41.9198372  70.2756048 105.0837621  38.8330750  68.3097130 111.8506863
  39.3084871  68.5024776 111.0425714  37.9096315  68.3656316 111.6050246
  25.7214256  69.4721297 101.4337941  25.4760298  68.5683627 101.6318151
  25.8910171  69.4738448 100.4917419  33.4110966  60.3444974 110.8162697
  33.9292910  61.0806001 110.4909185  33.0566099  60.6508967 111.6509456
  24.9909904  65.2049655  98.9324102  24.2979149  65.2794010  98.2764138
  24.7461656  64.4409998  99.4545619  33.6623560  56.7645256 106.3363593
  33.9425314  56.0968445 106.9624020  34.4474167  56.9574352 105.8238257
  31.4657029  75.9404250  97.8988620  30.8930996  76.5594437  97.4459091
  32.0389822  76.4903612  98.4328541  37.5332419  65.1862890 110.0835168
  38.4849841  65.2860988 110.1047392  37.3635869  64.3941159 110.5933253
  35.5546798  62.2718473 110.2694569  34.9596730  62.5523486 109.5741058
  35.2696495  62.7612374 111.0411310  34.6854289  76.2241400  99.0297202
  35.6184962  76.1586962  99.2330077  34.5977501  77.0597667  98.5711734
  37.3142305  75.5407270  95.9901149  37.2355937  75.2067134  96.8836907
  38.1351972  76.0329038  95.9892622  40.0120496  68.4069010 109.1977468
  39.9796816  67.4685011 109.3837152  40.6221120  68.4853047 108.4643293
  31.8503827  67.2765063  95.2404672  32.7962932  67.1471271  95.3093090
  31.4718072  66.5379725  95.7174100  40.1614985  65.1980053 109.2435751
  39.6454034  64.4138510 109.0565680  41.0454933  64.8698770 109.4082271
  37.8225712  58.9421069 105.2031564  37.6250533  58.6336157 106.0874896
  38.4325417  59.6682708 105.3329494  45.8297046  69.4685017 108.3383505
  46.5600435  69.2070305 108.8991208  45.2203992  68.7313739 108.3785573
  43.9112343  67.6092879 108.9357956  43.1845507  67.4748844 108.3274448
  43.4959630  67.9169708 109.7414674  30.0346744  65.2015039  95.1759557
  29.1278200  64.9048152  95.2522271  30.3122725  64.9044857  94.3093843
  31.6508810  59.7451929 101.3303799  30.8409538  59.3999014 101.7059045
  32.3393227  59.4359473 101.9191410  33.5799358  58.8229976 102.9528095
  34.1330397  59.2425429 103.6118118  33.8169445  57.8965724 102.9951051
  28.8045529  62.0601974  95.3171536  29.6664693  62.3856873  95.5767354
  28.9895873  61.2733470  94.8044602  36.9578165  60.9330501 102.4606759
  36.3776835  61.5915305 102.0784812  36.6914098  60.1107845 102.0494177
  35.4081732  60.3335559 104.6628080  35.9081510  60.4452093 103.8542399
  36.0517340  60.0296611 105.3028888  35.7403044  63.0930591 101.5163108
  34.8528899  63.3780242 101.2983302  36.1557033  62.9324355 100.6690385
  39.0917580  63.1177112 105.2317447  39.8677970  63.6073565 105.5042064
  38.3665714  63.5435166 105.6889316  41.5290138  63.8304731 106.2891388
  42.1234629  63.5900467 105.5784696  41.6016722  63.1111862 106.9164924
  34.8846257  72.8575266  95.6111128  35.5882107  73.0625268  96.2268783
  34.1608906  73.4252028  95.8760211  35.7144067  68.6085127 101.7313398
  35.6579269  69.0653679 100.8921030  36.2672410  67.8475812 101.5536241
  39.5248873  64.3974859 102.5563517  39.2685807  63.9971495 103.3871725
  38.9001741  65.1118653 102.4313657  43.8361211  67.1370932 105.0634809
  43.2760769  67.2064122 105.8366371  43.2304714  66.9611917 104.3434305
  36.7932954  73.2957795  97.6609588  37.6278558  72.8638994  97.4787063
  36.6317297  73.1239809  98.5886482  29.7574972  59.2998017  98.6051245
  29.7453642  60.2439857  98.7619516  30.6498394  59.1168163  98.3110707
  33.5727091  55.8940794 102.8597182  32.8059487  55.3399281 103.0053865
  33.9837796  55.9662663 103.7211334  38.0893751  85.6190351 103.6823180
  37.5258617  85.5280288 102.9139468  37.9746146  84.7990255 104.1625673
  43.6693310  89.2861318  98.9937645  43.0181290  89.8715399  98.6071659
  44.4637673  89.8167513  99.0532683  37.5948937  86.3750456  99.3924779
  38.3679813  85.8279443  99.2537655  37.9474336  87.2394705  99.6039241
  39.9315215  82.5343122  97.0243229  40.1840736  82.0124643  96.2626692
  38.9939774  82.3709267  97.1269913  45.1468575  86.9751750  99.5306629
  44.5114408  87.0486377 100.2427534  44.8165982  87.5645349  98.8525709
  39.6511504  84.4371228  99.2267604  39.5347762  83.7616131  99.8948689
  39.7613764  83.9503602  98.4099757  41.9943045  83.8981375 102.9314293
  41.6301252  83.3711996 103.6427215  42.8510161  83.5079844 102.7580779
  41.6348532  78.9271274  97.9275642  41.8022934  79.7951511  98.2946113
  41.4445701  79.0898556  97.0036931  41.6137753  81.3828932  98.9122309
  41.4937378  81.8285983  99.7507789  40.9190341  81.7314250  98.3535847
  47.3122819  81.8550405  99.7402643  48.2240675  82.0877792  99.5650340
  46.8032466  82.4387449  99.1777721  40.4089249  82.6973784 101.2055875
  41.1113292  83.1494828 101.6729801  40.0769878  82.0557603 101.8335768
  34.1514583  80.9557337 106.5073008  33.3613637  81.2114865 106.0313119
  34.6425830  81.7705675 106.6125049  36.1029328  81.3201916 103.4656485
  35.3060492  81.4320610 103.9839981  35.8754921  81.6588568 102.5997375
  35.1012411  87.0290165 101.8545905  35.6136932  87.8233415 102.0051470
  35.7535124  86.3316455 101.7879506  33.0661328  85.3578819 102.6305475
  33.9036550  85.7675827 102.4139183  33.2439596  84.4178261 102.6005669
  44.9625760  83.0253900  98.3189308  44.4472383  83.7958504  98.5577696
  44.6903068  82.3519036  98.9422370  42.5472871  77.8703600 103.3774547
  41.6914467  77.4810451 103.1980185  42.9599823  77.9495561 102.5174332
  44.0772018  75.4049944 107.7766107  43.5736813  75.3680079 106.9633912
  44.3702625  76.3142686 107.8362763  40.3214904  75.4888673 106.7832288
  41.1867900  75.2931482 106.4238178  40.3892412  75.2599025 107.7101645
  49.9360034  85.7786254 100.2542482  49.1589477  85.4397414  99.8097644
  50.6151515  85.7838877  99.5797447  44.7512063  80.8980992 100.1449090
  44.4462199  81.2127141 100.9959233  45.7042505  80.9762412 100.1876423
  43.1958495  87.0571215 101.7942044  42.6679857  86.3223975 101.4815281
  42.6945998  87.8345891 101.5482012  37.9277223  77.7190881 104.1548655
  38.5020975  77.4966063 103.4221848  38.5148205  77.7879576 104.9077256
  38.2546810  79.7495342  98.1744540  37.4184122  80.0870029  98.4953815
  38.1151579  79.6144322  97.2371677  40.2299890  74.5932130 102.8823724
  39.5764303  74.2781147 102.2580339  40.1880364  73.9707871 103.6083547
  41.3411095  84.8751425  94.7977017  40.4338157  84.6440679  94.9968166
  41.8382127  84.0789045  94.9850998  44.2479174  93.5848933  97.7173703
  43.5740873  93.8880629  98.3258661  44.6344996  94.3878013  97.3679160
  44.2472678  82.4805479 102.3374052  44.9944497  82.9926877 102.0281174
  44.5164268  82.1589532 103.1978446  42.5199329  84.9764020  99.3201007
  41.6110548  84.6923053  99.4173476  42.5494412  85.3963099  98.4604314
  46.6951516  79.5162596 104.3192842  45.9574272  79.0039982 104.6503084
  46.9478289  79.0762977 103.5076119  46.7963143  72.2938848 104.9134611
  47.1022020  71.4336211 104.6260526  47.5215748  72.8856468 104.7133605
  33.0887499  82.6969534 103.3016209  32.8911899  82.1038895 102.5767275
  32.5334163  82.3921745 104.0192148  41.0684223  82.5892641 105.4210802
  41.1232832  81.6366477 105.3453279  40.2575425  82.7452080 105.9052100
  42.2175416  86.5172764  96.6589085  41.7794846  85.8008623  96.1994723
  42.9585857  86.7448879  96.0974177  39.0076583  81.2069701 103.1801181
  38.1944448  81.5063871 103.5866373  39.5035577  80.8125389 103.8975663
  38.4990657  78.7788056 108.7962416  39.1390037  78.6376815 108.0985379
  37.6668188  78.4922569 108.4201018  35.5833725  82.2233568 100.9857161
  34.6531313  82.1618024 101.2027123  35.6791197  81.7009521 100.1893802
  35.5019274  78.7488381 103.5735403  35.7626091  79.6633714 103.4644563
  36.3236446  78.2812824 103.7232015  46.3386644  85.3757146  96.2521143
  45.7215815  84.6503974  96.1554195  45.8703132  86.1366506  95.9088217
  38.1285190  79.5942570  95.3742447  37.2514656  79.4731371  95.0104694
  38.6042943  78.8028648  95.1221336  44.6245766  77.7563490 105.2639173
  45.1214466  77.0033452 104.9440243  43.8532748  77.7927806 104.6982382
  41.2080735  79.8980873 104.9910858  40.8378522  79.3451913 105.6791763
  41.7039827  79.2939006 104.4385858  32.8563884  81.1884425 100.8155353
  33.1517325  80.2795103 100.7622406  31.9551920  81.1672165 100.4936355
  36.3858131  79.2640422 106.7982901  35.6644717  79.8776389 106.6590375
  37.1751387  79.7998186 106.7199547  34.5851725  78.8698523 100.9394678
  34.2564432  77.9895902 100.7569784  34.9391096  78.8146191 101.8271067
  37.6993549  79.1571493 101.3070156  38.0389621  79.6857414 100.5848764
  38.1465669  79.4951899 102.0828722  41.0453461  74.6257856 109.2100547
  41.8679530  74.1518334 109.0879437  41.2891525  75.4048339 109.7099233
  39.6861696  77.6546114  99.5063448  40.4070058  78.0327367  99.0027165
  39.0627000  78.3734991  99.6098426  43.8292819  78.3591263 100.4421781
  44.0456433  79.2415901 100.1410609  43.3486886  77.9677476  99.7127423
  40.4288423  78.3079524 107.0673415  40.4149992  77.4120618 106.7305713
  41.1460851  78.3150188 107.7011701  39.8325319  77.1893905 102.3360985
  39.9541230  76.2610551 102.5351872  39.5427361  77.2032591 101.4239300
  42.7016509  74.8748815 105.4727705  42.7238206  74.9388148 104.5179684
  43.1184568  74.0353324 105.6668211  38.8055378  88.7748037 100.4276872
  38.9543498  89.4583502  99.7743545  39.6121821  88.7553127 100.9426328
  36.5608011  84.8013215 101.4337941  36.3154053  83.8975545 101.6318151
  36.7303925  84.8030365 100.4917419  35.8303658  80.5341572  98.9324102
  35.1372903  80.6085927  98.2764138  35.5855410  79.7701916  99.4545619
  44.5017315  72.0937174 106.3363593  44.7819069  71.4260363 106.9624020
  45.2867922  72.2866269 105.8238257  42.3050783  91.2696168  97.8988620
  41.7324750  91.8886355  97.4459091  42.8783577  91.8195529  98.4328541
  48.1536060  90.8699188  95.9901149  48.0749691  90.5359052  96.8836907
  48.9745726  91.3620956  95.9892622  42.6897582  82.6056980  95.2404672
  43.6356686  82.4763189  95.3093090  42.3111827  81.8671642  95.7174100
  48.6619466  74.2712986 105.2031564  48.4644287  73.9628075 106.0874896
  49.2719172  74.9974625 105.3329494  40.8740499  80.5306957  95.1759557
  39.9671954  80.2340070  95.2522271  41.1516480  80.2336775  94.3093843
  42.4902565  75.0743847 101.3303799  41.6803293  74.7290932 101.7059045
  43.1786982  74.7651390 101.9191410  44.4193113  74.1521893 102.9528095
  44.9724152  74.5717347 103.6118118  44.6563199  73.2257641 102.9951051
  39.6439284  77.3893892  95.3171536  40.5058448  77.7148790  95.5767354
  39.8289628  76.6025388  94.8044602  47.7971920  76.2622419 102.4606759
  47.2170589  76.9207223 102.0784812  47.5307853  75.4399763 102.0494177
  46.2475486  75.6627476 104.6628080  46.7475265  75.7744011 103.8542399
  46.8911094  75.3588529 105.3028888  46.5796798  78.4222509 101.5163108
  45.6922653  78.7072160 101.2983302  46.9950787  78.2616272 100.6690385
  45.7240011  88.1867184  95.6111128  46.4275862  88.3917186  96.2268783
  45.0002660  88.7543945  95.8760211  46.5537822  83.9377045 101.7313398
  46.4973023  84.3945596 100.8921030  47.1066164  83.1767729 101.5536241
  50.3642628  79.7266777 102.5563517  50.1079562  79.3263412 103.3871725
  49.7395496  80.4410571 102.4313657  47.6326709  88.6249713  97.6609588
  48.4672313  88.1930911  97.4787063  47.4711052  88.4531726  98.5886482
  47.2872601  85.1281826  99.0265927  47.2321405  84.9626098  98.0854371
  46.6618656  85.8357859  99.1828117  40.5968727  74.6289935  98.6051245
  40.5847396  75.5731775  98.7619516  41.4892148  74.4460080  98.3110707
  44.4120846  71.2232712 102.8597182  43.6453242  70.6691198 103.0053865
  44.8231551  71.2954580 103.7211334  48.9678944  94.9234487  95.3742447
  48.0908411  94.8023288  95.0104694  49.4436697  94.1320566  95.1221336
  50.4833038  92.7185810  95.3171536  51.3452202  93.0440708  95.5767354
  50.6683382  91.9317306  94.8044602  15.6354797  21.8885558  82.7146456
  15.5568429  21.5545421  83.6082214  16.4564464  22.3807326  82.7137928
  21.9905802  35.6339606  85.7182952  21.3393782  36.2193686  85.3316965
  22.7850165  36.1645801  85.7777989  15.9161430  32.7228743  86.1170086
  16.6892306  32.1757730  85.9782962  16.2686828  33.5872992  86.3284547
  18.2527707  28.8821409  83.7488536  18.5053228  28.3602930  82.9871999
  17.3152267  28.7187554  83.8515220  23.4681068  33.3230038  86.2551936
  22.8326901  33.3964664  86.9672841  23.1378474  33.9123636  85.5771015
  17.9723996  30.7849515  85.9512911  17.8560254  30.1094418  86.6193995
  18.0826256  30.2981889  85.1345064  20.3155537  30.2459662  89.6559600
  19.9513744  29.7190283  90.3672522  21.1722653  29.8558131  89.4826086
  19.9561024  25.2749562  84.6520949  20.1235426  26.1429798  85.0191420
  19.7658193  25.4376843  83.7282238  19.9350245  27.7307219  85.6367615
  19.8149870  28.1764270  86.4753096  19.2402833  28.0792537  85.0781154
  17.6957137  40.5010861  89.2857747  17.6181167  41.4518686  89.3646227
  17.0918781  40.1556733  89.9432673  25.6335311  28.2028692  86.4647950
  26.5453167  28.4356079  86.2895647  25.1244958  28.7865737  85.9023028
  28.1194125  34.1208949  91.2105895  27.4345163  34.5007850  90.6602928
  28.2037975  34.7304275  91.9437842  19.7932855  32.9228919  91.1211616
  20.2571201  33.2016622  90.3316239  19.5289653  32.0212363  90.9384707
  18.7301741  29.0452071  87.9301181  19.4325785  29.4973115  88.3975108
  18.3982370  28.4035890  88.5581074  34.5796878  30.9879612  92.3308567
  33.8260586  30.4187010  92.1752572  34.7144419  30.9542276  93.2779202
  19.9695506  35.8593014  88.0063286  19.8341181  36.7044550  88.4348134
  20.5105318  36.0612292  87.2429220  13.4224903  33.3768452  88.5791212
  13.9349424  34.1711702  88.7296776  14.0747616  32.6794742  88.5124813
  15.2319788  36.4934208  90.6613965  15.4086416  37.4152173  90.4734949
  16.0276622  36.1792627  91.0908344  23.2838252  29.3732187  85.0434615
  22.7684876  30.1436792  85.2823002  23.0115561  28.6997323  85.6667676
  28.2572526  32.1264542  86.9787788  27.4801969  31.7875701  86.5342951
  28.9364007  32.1317165  86.3042754  23.0724555  27.2459279  86.8694396
  22.7674691  27.5605428  87.7204539  24.0254998  27.3240699  86.9121729
  21.5170987  33.4049502  88.5187350  20.9892349  32.6702262  88.2060588
  21.0158490  34.1824179  88.2727318  26.4963833  31.5998523  93.6354396
  25.8387508  32.2897784  93.7234525  27.3004233  31.9894955  93.9788383
  25.3069292  29.9542895  91.6858338  25.8201174  30.5872887  92.1880048
  25.9570516  29.3544091  91.3201698  16.5759302  26.0973630  84.8989847
  15.7396614  26.4348316  85.2199122  16.4364072  25.9622609  83.9616984
  19.6623587  31.2229713  81.5222323  18.7550649  30.9918966  81.7213472
  20.1594619  30.4267332  81.7096305  22.5691666  39.9327220  84.4419009
  21.8953365  40.2358917  85.0503967  22.9557488  40.7356300  84.0924466
  22.5685171  28.8283767  89.0619359  23.3156990  29.3405164  88.7526481
  22.8376760  28.5067819  89.9223753  20.8411821  31.3242307  86.0446313
  19.9323040  31.0401340  86.1418783  20.8706905  31.7441386  85.1849620
  26.0731088  34.9348897  89.8137481  25.6193415  34.0939807  89.8702671
  25.4425055  35.5710295  90.1512261  24.5164028  36.7725394  90.7487299
  24.8087002  37.3330451  90.0299665  25.0262648  37.0653955  91.5040458
  20.5387909  32.8651051  83.3834392  20.1007339  32.1486910  82.9240029
  21.2798350  33.0927166  82.8219483  19.4797653  37.5505745  91.8380752
  19.4373832  37.7766591  90.9089284  20.3960352  37.3169119  91.9866553
  28.6561023  31.1408248  89.4410710  28.5178922  31.3309844  88.5131900
  28.2997242  31.9027631  89.8978762  28.6830403  33.2084775  94.4521982
  29.1166910  33.1160064  95.3005036  29.3961984  33.1842276  93.8141998
  17.5963454  34.4268774  91.6342715  18.3904052  33.9319094  91.4325290
  16.8855146  33.8986637  91.2710420  20.7682881  40.1006892  86.6566089
  20.9434637  39.6294935  87.4711711  20.0815670  40.7272658  86.8847349
  21.7239945  34.3779398  92.7029390  21.3889777  34.3380168  93.5987040
  21.2243890  33.7124114  92.2299800  24.6599136  31.7235433  82.9766449
  24.0428307  30.9982261  82.8799502  24.1915625  32.4844793  82.6333524
  15.3343967  43.2496255  93.4305949  15.5740565  43.8814779  94.1084967
  14.4913163  42.8984295  93.7171308  16.4497682  25.9420857  82.0987754
  15.5727149  25.8209658  81.7350000  16.9255435  25.1506935  81.8466642
  19.8471829  39.0575377  95.8347453  19.7742000  39.8630349  96.3466757
  19.4049222  39.2567343  95.0095474  19.6361608  38.2947147  89.3450274
  18.8529130  38.8368828  89.4388499  20.3354353  38.8121127  89.7444515
  30.7988016  29.8082142  93.6302771  30.7877892  30.6906858  93.2596704
  29.9305395  29.4553693  93.4357308  24.0288039  32.8613464  89.5622903
  23.0944318  32.9814927  89.3927607  24.2064708  31.9585931  89.2982913
  27.4160590  28.7030783  90.0972937  27.8821043  29.5358775  90.0233240
  27.8668091  28.2375765  90.8018196  25.4836822  35.0474605  87.0959089
  25.7596665  34.9331199  88.0052963  24.6141320  34.6492090  87.0571262
  22.1190886  39.2960956  90.7391903  22.3013280  38.4782611  91.2019655
  22.9423872  39.5128648  90.3016793  22.4533051  38.2229141  88.0006951
  22.9820817  37.7121595  87.3877113  22.7161271  37.9071671  88.8652484
  15.8088799  39.2744257  90.7604727  15.1399174  39.7590385  90.2768767
  15.6701669  39.5213478  91.6748106  23.0862455  39.2569976  94.3451068
  22.9613594  38.4559716  93.8362013  23.7441546  39.7516170  93.8565038
  25.1497363  37.0578996  95.9730618  24.2027699  36.9384348  95.9008945
  25.4980136  36.1701494  96.0556879  22.1543797  36.8531713  92.1734970
  22.0068759  35.9248420  92.3542540  22.9797290  36.8751803  91.6892045
  25.7577918  37.6760271  93.2599843  26.6824466  37.4703133  93.1224294
  25.5893222  37.4276673  94.1689184  18.0074188  24.0024401  86.2308755
  18.7282550  24.3805654  85.7272472  17.3839492  24.7213278  86.3343733
  22.1505311  24.7069550  87.1667087  22.3668925  25.5894188  86.8655915
  21.6699378  24.3155764  86.4372729  25.5473235  38.1945939  88.6161934
  25.7210112  37.6292361  87.8635787  26.0402126  38.9946834  88.4341424
  31.4012626  30.9582362  90.2352234  31.8443772  30.2089687  89.8371357
  30.5239136  30.9492498  89.8525966  26.5348407  37.5112703  85.7158833
  27.2299312  38.1319396  85.9346147  26.8771557  36.6608054  85.9911210
  28.4339830  34.9612409  87.2446163  28.9591154  35.2999682  86.5195483
  28.3462183  34.0259424  87.0609298  20.1180491  41.0284392  91.6041417
  19.6785481  40.5360771  92.2974273  20.8688608  40.4857360  91.3633492
  17.1267870  35.1226325  87.1522179  17.2755990  35.8061789  86.4988851
  17.9334313  35.1031415  87.6671634  30.9445490  32.4287600  92.6274682
  31.7792382  32.8677404  92.7912242  31.0804619  31.9526253  91.8082927
  14.8820503  31.1491502  88.1583248  14.6366545  30.2453832  88.3563458
  15.0516418  31.1508653  87.2162726  14.1516150  26.8819860  85.6569409
  13.4585395  26.9564215  85.0009445  13.9067902  26.1180203  86.1790926
  20.6263276  37.6174455  84.6233926  20.0537243  38.2364642  84.1704398
  21.1996069  38.1673817  85.1573848  23.8460535  37.9011605  85.7542508
  24.7791208  37.8357167  85.9575384  23.7583748  38.7367872  85.2957041
  26.4748552  37.2177475  82.7146456  26.3962183  36.8837339  83.6082214
  27.2958219  37.7099243  82.7137928  21.0110074  28.9535268  81.9649979
  21.9569179  28.8241476  82.0338397  20.6324319  28.2149930  82.4419407
  34.9903293  31.1455222  95.0628811  35.7206681  30.8840510  95.6236515
  34.3810238  30.4083944  95.1030879  19.1952991  26.8785244  81.9004864
  18.2884447  26.5818357  81.9767577  19.4728972  26.5815062  81.0339150
  17.9651776  23.7372179  82.0416843  18.8270940  24.0627078  82.3012660
  18.1502120  22.9503675  81.5289909  24.9009290  24.7700796  88.2408414
  24.0135145  25.0550447  88.0228609  25.3163279  24.6094560  87.3935691
  12.9093541  39.3508547  93.3279859  12.7748009  38.5908948  92.7617857
  12.4925603  40.0749447  92.8608648  24.0452504  34.5345471  82.3356434
  24.7488354  34.7395473  82.9514090  23.3215153  35.1022233  82.6005518
  24.8750314  30.2855332  88.4558704  24.8185515  30.7423884  87.6166337
  25.4278656  29.5246017  88.2781547  28.6855120  26.0745064  89.2808824
  28.4292054  25.6741700  90.1117032  28.0607988  26.7888858  89.1558963
  32.9967458  28.8141137  91.7880115  32.4367016  28.8834327  92.5611677
  32.3910961  28.6382122  91.0679612  16.0662667  40.2477864  93.5398302
  15.9495051  41.1923297  93.4376992  15.2455113  39.9451426  93.9284101
  25.9539201  34.9728000  84.3854894  26.7884805  34.5409198  84.2032369
  25.7923544  34.8010014  85.3131789  25.6085093  31.4760113  85.7511234
  25.5533897  31.3104385  84.8099678  24.9831149  32.1836146  85.9073423
  18.8470783  39.6537113  93.4164309  17.8966414  39.6538974  93.3028681
  19.1503269  38.9069847  92.9000343  34.5823476  45.4897651  94.4810071
  35.2201886  45.3704398  93.7773411  34.4644319  46.4378495  94.5398023
  31.3913183  45.4425079  94.4171596  31.0531694  45.3266144  93.5292131
  32.2602951  45.0416244  94.3972602  27.2499998  47.2960556  90.4068487
  26.6864863  47.2050493  89.6384775  27.1352393  46.4760460  90.8870979
  31.8732966  46.5959931 100.3757801  31.8621606  46.2012729  99.5038305
  32.0353605  45.8626004 100.9691573  24.7964430  48.7911747  93.2452707
  25.5885722  48.4502572  92.8299007  25.0361080  48.9006722  94.1654861
  32.8299557  50.9631523  85.7182952  32.1787537  51.5485604  85.3316965
  33.6243920  51.4937718  85.7777989  26.7555184  48.0520661  86.1170086
  27.5286060  47.5049648  85.9782962  27.1080583  48.9164910  86.3284547
  28.5940227  49.3797043  99.3236985  28.3030093  50.2842674  99.2083652
  29.2297211  49.4213570 100.0381055  29.5196434  46.7573891  95.9138345
  30.1160006  46.5329914  95.1995308  29.5771405  46.0158637  96.5163793
  29.0921462  44.2113327  83.7488536  29.3446983  43.6894848  82.9871999
  28.1546021  44.0479472  83.8515220  34.1364745  43.2149105  91.5563279
  34.9227834  42.7968528  91.2053696  34.4003449  44.1195197  91.7244928
  34.3074822  48.6521955  86.2551936  33.6720655  48.7256582  86.9672841
  33.9772228  49.2415554  85.5771015  39.5373172  43.1524338  92.4596258
  40.2698344  42.5823555  92.6934087  38.7812528  42.7645939  92.9002763
  28.8117751  46.1141433  85.9512911  28.6954009  45.4386336  86.6193995
  28.9220011  45.6273807  85.1345064  31.1549292  45.5751580  89.6559600
  30.7907499  45.0482201  90.3672522  32.0116407  45.1850049  89.4826086
  37.0598592  36.8645912  96.9190866  36.7281917  37.7341323  96.6952081
  36.4644206  36.5482196  97.5984897  30.7954779  40.6041479  84.6520949
  30.9629181  41.4721716  85.0191420  30.6051948  40.7668761  83.7282238
  33.5530112  49.0658458  96.3186779  33.2530835  49.9683497  96.2102586
  33.2081171  48.7990641  97.1707932  27.0042593  45.5172255  92.3523483
  26.0793090  45.3848469  92.5601175  27.2527006  46.2966474  92.8493426
  36.9527256  41.5840998  93.9984216  36.0444133  41.5156407  93.7042977
  36.9014851  42.0612943  94.8266042  30.7743999  43.0599137  85.6367615
  30.6543625  43.5056188  86.4753096  30.0796588  43.4084455  85.0781154
  24.3651404  45.1605529  93.1867273  24.4943785  45.4140008  94.1006684
  23.6848856  45.7533237  92.8671928  28.5350892  55.8302779  89.2857747
  28.4574921  56.7810604  89.3646227  27.9312535  55.4848651  89.9432673
  31.0268121  43.0030644 101.9419114  30.2501455  43.5624564 101.9321978
  31.6658684  43.4887427 102.4633984  38.8188902  39.7857437  95.7762090
  38.1763282  40.0789970  95.1301885  38.3143830  39.6710357  96.5815287
  36.4729066  43.5320610  86.4647950  37.3846922  43.7647997  86.2895647
  35.9638713  44.1157654  85.9023028  29.2814494  45.8116097 101.5037081
  30.0229178  46.3501141 101.2271904  28.5751479  46.4382386 101.6608632
  34.7569833  47.9545238 100.1009242  35.1653189  47.5127648  99.3563874
  34.0347095  47.3797865 100.3543435  31.1100903  42.8917845  97.4742799
  31.9562099  43.3157258  97.6177448  31.0499541  42.2351469  98.1681362
  35.0798648  48.5146429  93.8561531  34.4507510  48.6792143  93.1537599
  34.6924310  48.9288038  94.6272495  38.9587880  49.4500866  91.2105895
  38.2738918  49.8299768  90.6602928  39.0431729  50.0596193  91.9437842
  34.2600349  40.5522213  99.1323973  34.0161281  41.3064274  98.5958248
  34.5360279  40.9307561  99.9671220  36.2138811  47.0960825  97.8101238
  36.4255707  47.7392585  97.1335619  36.1668560  46.2623142  97.3423168
  33.8165040  39.7078646  94.7137810  32.9549519  40.0059900  95.0054548
  33.8427475  39.9249045  93.7818843  30.6326610  48.2520837  91.1211616
  31.0964955  48.5308540  90.3316239  30.3683408  47.3504281  90.9384707
  27.5250691  47.7992318  94.0591379  28.0952048  48.2279587  93.4208864
  28.1158803  47.5174903  94.7575565  29.5695496  44.3743989  87.9301181
  30.2719539  44.8265033  88.3975108  29.2376124  43.7327808  88.5581074
  23.3120830  42.6327542  93.2318315  22.5219884  42.8885070  92.7558425
  23.8032077  43.4475879  93.3370355  37.3284639  49.9732781  95.9823596
  38.1502083  49.5712968  95.7006277  37.3247042  49.8701015  96.9339711
  25.2635575  42.9972121  90.1901791  24.4666738  43.1090815  90.7085287
  25.0361167  43.3358773  89.3242682  31.0941243  49.5216824  98.1384306
  31.1585675  49.9837231  98.9742478  30.3852167  48.8914189  98.2666616
  21.5958533  42.8858032  95.6633306  21.8466571  43.7705042  95.9290882
  22.1318081  42.7062634  94.8908397  45.4190632  46.3171529  92.3308567
  44.6654341  45.7478927  92.1752572  45.5538174  46.2834194  93.2779202
  30.8089260  51.1884932  88.0063286  30.6734935  52.0336467  88.4348134
  31.3499073  51.3904209  87.2429220  24.2618658  48.7060370  88.5791212
  24.7743178  49.5003620  88.7296776  24.9141371  48.0086660  88.5124813
  26.0713543  51.8226126  90.6613965  26.2480171  52.7444091  90.4734949
  26.8670376  51.5084545  91.0908344  32.4357737  51.8108498 102.1363629
  31.9921591  51.0244877 101.8184533  33.0974950  51.9987649 101.4707519
  27.1944858  53.3404300  96.6624307  27.7452283  53.2121363  95.8901301
  26.3556334  53.6399189  96.3119200  34.5338975  52.0911298 100.1645030
  34.5157450  52.9120179  99.6725299  35.4558895  51.9665373 100.3895171
  30.9912029  49.6055428 101.0068538  31.5240366  48.8443716 100.7767846
  30.4626110  49.3129079 101.7492693  34.1581724  34.7115493  96.5362180
  33.8145993  35.6017135  96.4601290  34.5260687  34.5217151  95.6731765
  22.2267575  47.0349024  89.3550782  23.0642797  47.4446032  89.1384490
  22.4045842  46.0948466  89.3250976  34.1232007  44.7024105  85.0434615
  33.6078630  45.4728709  85.2823002  33.8509315  44.0289241  85.6667676
  31.7079118  39.5473805  90.1019853  30.8520714  39.1580656  89.9225492
  32.1206070  39.6265766  89.2419639  33.2378264  37.0820149  94.5011413
  32.7343060  37.0450284  93.6879218  33.5308871  37.9912891  94.5608070
  29.4821150  37.1658878  93.5077595  30.3474147  36.9701687  93.1483484
  29.5498659  36.9369230  94.4346952  39.0966281  47.4556459  86.9787788
  38.3195724  47.1167619  86.5342951  39.7757762  47.4609082  86.3042754
  33.9118310  42.5751197  86.8694396  33.6068445  42.8897346  87.7204539
  34.8648752  42.6532617  86.9121729  32.3564742  48.7341420  88.5187350
  31.8286103  47.9994180  88.2060588  31.8552244  49.5116096  88.2727318
  37.3357588  46.9290440  93.6354396  36.6781262  47.6189702  93.7234525
  38.1397987  47.3186872  93.9788383  27.0883469  39.3961086  90.8793962
  27.6627221  39.1736268  90.1467155  27.6754452  39.4649781  91.6322563
  36.1463047  45.2834813  91.6858338  36.6594928  45.9164805  92.1880048
  36.7964270  44.6836009  91.3201698  27.4153056  41.4265547  84.8989847
  26.5790369  41.7640234  85.2199122  27.2757826  41.2914527  83.9616984
  29.3906137  36.2702335  89.6069031  28.7370549  35.9551352  88.9825646
  29.3486611  35.6478076  90.3328854  30.5017342  46.5521630  81.5222323
  29.5944404  46.3210884  81.7213472  30.9988374  45.7559250  81.7096305
  33.4085421  55.2619137  84.4419009  32.7347120  55.5650834  85.0503967
  33.7951243  56.0648218  84.0924466  32.6243877  42.7584269  93.9316679
  31.7066439  42.9799216  93.7738367  33.0404021  42.8330579  93.0728386
  33.4078925  44.1575684  89.0619359  34.1550744  44.6697082  88.7526481
  33.6770515  43.8359737  89.9223753  31.6805575  46.6534225  86.0446313
  30.7716795  46.3693258  86.1418783  31.7100659  47.0733304  85.1849620
  36.9124843  50.2640815  89.8137481  36.4587170  49.4231724  89.8702671
  36.2818810  50.9002213  90.1512261  35.8557762  41.1932801  91.0438148
  35.1180519  40.6810187  91.3748391  36.1084536  40.7533182  90.2321425
  35.3557782  52.1017311  90.7487299  35.6480756  52.6622368  90.0299665
  35.8656403  52.3945872  91.5040458  35.9569390  33.9709053  91.6379918
  36.2628266  33.1106416  91.3505833  36.6821994  34.5626673  91.4378911
  22.2493746  44.3739739  90.0261515  22.0518146  43.7809100  89.3012582
  21.6940410  44.0691949  90.7437454  30.2290469  44.2662846  92.1456109
  30.2839079  43.3136682  92.0698585  29.4181671  44.4222285  92.6297407
  31.3781663  48.1942969  83.3834392  30.9401093  47.4778828  82.9240029
  32.1192104  48.4219084  82.8219483  28.1682829  42.8839905  89.9046488
  27.3550695  43.1834076  90.3111680  28.6641824  42.4895594  90.6220970
  30.3191407  52.8797662  91.8380752  30.2767586  53.1058509  90.9089284
  31.2354106  52.6461037  91.9866553  33.7657041  43.3481730  98.7361381
  34.1206429  43.5753203  99.5955847  34.4129172  43.6800107  98.1138637
  39.4954778  46.4700166  89.4410710  39.3572677  46.6601762  88.5131900
  39.1390997  47.2319549  89.8978762  27.6596904  40.4558261  95.5207722
  28.2996283  40.3147020  94.8230686  26.8274435  40.1692774  95.1446324
  39.5224158  48.5376693  94.4521982  39.9560664  48.4451982  95.3005036
  40.2355738  48.5134193  93.8141998  28.4357208  49.7560691  91.6342715
  29.2297806  49.2611012  91.4325290  27.7248900  49.2278555  91.2710420
  33.2552052  52.1378787  95.9855083  33.3089075  52.7069723  96.7532798
  32.3866834  52.3080672  95.6209120  24.7439971  43.9003773  87.7102468
  23.8137560  43.8388229  87.9272430  24.8397443  43.3779726  86.9139109
  24.6625521  40.4258586  90.2980709  24.9232338  41.3403919  90.1889870
  25.4842693  39.9583029  90.4477322  26.1350446  41.8396343  97.4679534
  26.8073499  41.6313705  96.8192183  25.3080232  41.6418429  97.0284766
  40.3839707  48.5800393  96.9854867  40.5775597  49.4846204  97.2314142
  40.2840325  48.1207813  97.8193452  32.0376018  38.4658284  99.4845195
  31.3903933  39.1648234  99.3909671  32.8077033  38.8994428  99.8521443
  35.4454816  48.7307136 102.5595748  35.2940322  48.5017688 101.6425832
  35.4359495  49.6877738 102.5727093  32.2140152  46.3039049  97.5442014
  33.1432212  46.4550209  97.3710982  31.7931182  46.3923070  96.6890661
  31.0128484  50.3289713  95.3140552  30.8739570  49.9608498  96.1866490
  30.2243080  50.8437353  95.1424510  31.6076636  55.4298810  86.6566089
  31.7828392  54.9586853  87.4711711  30.9209424  56.0564576  86.8847349
  32.5633699  49.7071316  92.7029390  32.2283532  49.6672086  93.5987040
  32.0637645  49.0416032  92.2299800  26.5377943  45.1138946  98.2281971
  26.3997741  44.3819185  98.8293510  27.4482867  45.0247846  97.9466159
  35.4992891  47.0527350  82.9766449  34.8822061  46.3274179  82.8799502
  35.0309379  47.8136711  82.6333524  29.1660244  44.8258905  97.7165651
  29.8759862  44.1852098  97.6752269  29.1229552  45.0771800  98.6391831
  37.1547022  51.7626259 100.6372230  37.0959569  51.0785479  99.9702813
  37.5566541  52.5045249 100.1852856  27.8789178  41.8124123  99.5361290
  27.3426535  41.3614862 100.1882886  27.2905886  41.9470032  98.7931754
  26.1737721  58.5788173  93.4305949  26.4134319  59.2106697  94.1084967
  25.3306918  58.2276213  93.7171308  27.2891437  41.2712775  82.0987754
  26.4120903  41.1501576  81.7350000  27.7649190  40.4798853  81.8466642
  37.1564430  49.7265843  98.8686209  36.2691208  49.3891765  98.9912608
  37.7262981  48.9948874  99.1054975  18.8093577  46.0589934  92.1929261
  19.4964617  45.7451664  91.6050276  18.6541706  46.9631299  91.9196512
  23.6128299  40.9480131  96.6214285  23.5286488  40.3405801  95.8864695
  22.7911005  41.4389149  96.6223781  30.6865583  54.3867295  95.8347453
  30.6135755  55.1922267  96.3466757  30.2442976  54.5859261  95.0095474
  30.4755363  53.6239065  89.3450274  29.6922885  54.1660745  89.4388499
  31.1748108  54.1413045  89.7444515  33.7852013  39.4333695  91.9884480
  34.2820712  38.6803657  91.6685550  33.0138994  39.4698011  91.4227689
  41.6381770  45.1374060  93.6302771  41.6271647  46.0198776  93.2596704
  40.7699150  44.7845611  93.4357308  33.1464267  54.2854129  97.9905611
  33.8592239  54.9201594  97.9181513  32.6554295  54.3817995  97.1745613
  34.8681794  48.1905382  89.5622903  33.9338072  48.3106844  89.3927607
  35.0458462  47.2877849  89.2982913  30.3686982  41.5751078  91.7156164
  29.9984769  41.0222118  92.4037070  30.8646074  40.9709211  91.1631164
  38.2554345  44.0322701  90.0972937  38.7214797  44.8650693  90.0233240
  38.7061845  43.5667683  90.8018196  28.1976180  52.0348573  98.8111182
  28.8985640  52.6685056  98.9640576  27.7271295  52.3763304  98.0506821
  36.3230576  50.3766522  87.0959089  36.5990420  50.2623117  88.0052963
  35.4535075  49.9784007  87.0571262  36.2271008  36.4003288  94.1363838
  35.3134087  36.6307515  94.3046045  36.6564109  36.4841732  94.9877871
  35.9977466  44.5893180  96.6363733  35.3448916  44.8369087  95.9816185
  36.3757846  43.7757318  96.3026210  32.9584640  54.6252873  90.7391903
  33.1407035  53.8074529  91.2019655  33.7817626  54.8420565  90.3016793
  33.2926806  53.5521058  88.0006951  33.8214572  53.0413513  87.3877113
  33.5555025  53.2363589  88.8652484  32.0465039  45.3312991 103.1229770
  31.3705676  45.2307120 103.7932145  32.8692673  45.1752205 103.5865767
  23.7943898  51.5684928  95.7442285  24.3797335  50.8228616  95.8770189
  23.5968737  51.8788884  96.6278949  26.6482553  54.6036175  90.7604727
  25.9792929  55.0882303  90.2768767  26.5095423  54.8505395  91.6748106
  18.3861553  44.1390528  94.4646728  18.4245652  43.6054119  95.2583846
  17.8801846  43.6125733  93.8457705  30.7887822  56.6379919  97.3587386
  31.3406130  56.8011540  98.1236471  31.1294015  57.2284356  96.6867410
  25.7652315  38.9855068  97.9609270  25.8293642  39.8469899  97.5486668
  25.7019436  38.3729070  97.2281629  35.6398696  51.4641176 103.2136040
  36.1838600  52.0771134 102.7190995  35.0585541  52.0220754 103.7303053
  22.0170131  42.8654630  87.5400659  22.3123572  41.9565308  87.4867713
  21.1158166  42.8442369  87.2181662  33.9256209  54.5861894  94.3451068
  33.8007349  53.7851634  93.8362013  34.5835300  55.0808087  93.8565038
  25.5464378  40.9410627  93.5228208  24.8250963  41.5546594  93.3835681
  26.3357633  41.4768391  93.4444854  35.9891118  52.3870914  95.9730618
  35.0421453  52.2676265  95.9008945  36.3373891  51.4993412  96.0556879
  23.7457972  40.5468728  87.6639985  23.4170678  39.6666107  87.4815090
  24.0997343  40.4916396  88.5516374  32.9937551  52.1823630  92.1734970
  32.8462513  51.2540338  92.3542540  33.8191045  52.2043721  91.6892045
  26.8599795  40.8341697  88.0315462  27.1995868  41.3627619  87.3094071
  27.3071916  41.1722104  88.8074029  36.5971673  53.0052189  93.2599843
  37.5218220  52.7995050  93.1224294  36.4286976  52.7568590  94.1689184
  29.5543236  39.2178748  97.4818530  29.2140056  38.4186561  97.8839210
  28.8482242  39.5180459  96.9095363  30.2059708  36.3028061  95.9345853
  31.0285777  35.8288539  95.8124744  30.4497771  37.0818544  96.4344540
  28.8467942  39.3316319  86.2308755  29.5676305  39.7097572  85.7272472
  28.2233247  40.0505196  86.3343733  32.9899065  40.0361468  87.1667087
  33.2062680  40.9186106  86.8655915  32.5093132  39.6447681  86.4372729
  27.7298287  42.9947181  93.7437832  27.5842867  43.3087484  94.6362113
  27.2523490  43.6132082  93.1908731  29.5894670  39.9849729  93.7918721
  29.5756238  39.0890823  93.4551019  30.3067098  39.9920393  94.4257008
  31.4420800  40.4187069  95.8371849  31.1838578  41.3404140  95.8356179
  30.9105841  40.0217504  96.5272313  36.3866989  53.5237857  88.6161934
  36.5603867  52.9584279  87.8635787  36.8795880  54.3238751  88.4341424
  22.2043949  45.5352526  96.6825493  21.6597417  46.3112334  96.8145767
  23.0823299  45.8823330  96.5244615  28.9931566  38.8664109  89.0606292
  29.1147477  37.9380756  89.2597179  28.7033608  38.8802795  88.1484607
  31.8622756  36.5519020  92.1973011  31.8844453  36.6158353  91.2424991
  32.2790815  35.7123529  92.3913518  42.2406380  46.2874279  90.2352234
  42.6837526  45.5381605  89.8371357  41.3632891  46.2784416  89.8525966
  37.3742162  52.8404621  85.7158833  38.0693066  53.4611314  85.9346147
  37.7165312  51.9899972  85.9911210  22.9909971  44.6622422  99.5755650
  22.2491707  44.8105057 100.1620280  22.6702715  44.9230687  98.7122399
  39.2733585  50.2904326  87.2446163  39.7984909  50.6291599  86.5195483
  39.1855937  49.3551342  87.0609298  30.9353633  54.2038400  99.3736040
  31.2440760  53.9587547 100.2458740  31.7329115  54.4085039  98.8854910
  30.9574245  56.3576310  91.6041417  30.5179236  55.8652688  92.2974273
  31.7082362  55.8149277  91.3633492  23.4366584  52.5487851  91.6066045
  24.2624604  52.2491622  91.2264688  23.0860636  51.7795473  92.0555833
  28.4048118  51.9014319  93.6763718  27.7828127  51.2385024  93.3765946
  29.0752984  51.9275451  92.9937366  21.6375189  50.4674177  92.5654978
  20.8007098  50.0396351  92.3838979  21.6098835  50.6606620  93.5025769
  39.0825366  47.7729696  99.8630090  39.1323371  47.6079704 100.8045613
  38.9739289  46.9056956  99.4727971  27.9661624  50.4518242  87.1522179
  28.1149745  51.1353707  86.4988851  28.7728068  50.4323332  87.6671634
  36.3729128  43.7560625 101.1789397  37.2738991  43.6167089 100.8873394
  36.4477103  43.9215079 102.1187574  30.7071933  41.1327479 100.0242583
  29.8375243  41.4261045  99.7525171  30.9431414  41.7167924 100.7449846
  40.5843563  50.1926638 100.1072111  40.2928371  50.5556619 100.9435572
  39.9715694  49.4793646  99.9285443  41.7839245  47.7579518  92.6274682
  42.6186136  48.1969322  92.7912242  41.9198374  47.2818171  91.8082927
  38.8330751  45.3159253  98.5752169  39.3084872  45.5086899  97.7671021
  37.9096316  45.3718438  98.3295553  25.7214257  46.4783420  88.1583248
  25.4760299  45.5745750  88.3563458  25.8910172  46.4800570  87.2162726
  33.4110967  37.3507096  97.5408003  33.9292911  38.0868123  97.2154492
  33.0566100  37.6571089  98.3754762  24.9909905  42.2111777  85.6569409
  24.2979150  42.2856132  85.0009445  24.7461657  41.4472121  86.1790926
  33.6623561  33.7707379  93.0608900  33.9425315  33.1030568  93.6869326
  34.4474168  33.9636474  92.5483564  31.4657030  52.9466373  84.6233926
  30.8930997  53.5656560  84.1704398  32.0389824  53.4965734  85.1573848
  37.5332420  42.1925013  96.8080475  38.4849843  42.2923110  96.8292699
  37.3635870  41.4003281  97.3178559  35.5546799  39.2780596  96.9939876
  34.9596731  39.5585609  96.2986364  35.2696496  39.7674497  97.7656617
  34.6854290  53.2303523  85.7542508  35.6184963  53.1649084  85.9575384
  34.5977503  54.0659790  85.2957041  37.3142306  52.5469393  82.7146456
  37.2355938  52.2129257  83.6082214  38.1351973  53.0391161  82.7137928
  40.0120498  45.4131132  95.9222775  39.9796818  44.4747133  96.1082458
  40.6221121  45.4915169  95.1888599  31.8503828  44.2827185  81.9649979
  32.7962933  44.1533393  82.0338397  31.4718073  43.5441847  82.4419407
  40.1614986  42.2042176  95.9681058  39.6454035  41.4200632  95.7810987
  41.0454935  41.8760892  96.1327577  37.8225713  35.9483191  91.9276870
  37.6250534  35.6398280  92.8120202  38.4325419  36.6744830  92.0574800
  45.8297047  46.4747139  95.0628811  46.5600436  46.2132427  95.6236515
  45.2203993  45.7375861  95.1030879  43.9112345  44.6155002  95.6603263
  43.1845508  44.4810967  95.0519754  43.4959631  44.9231830  96.4659981
  31.7342521  48.3344931 103.4250636  32.6545530  48.5123531 103.6190682
  31.6992104  47.3900977 103.2730335  30.0346746  42.2077162  81.9004864
  29.1278201  41.9110274  81.9767577  30.3122727  41.9106980  81.0339150
  20.9524686  43.5283525  92.3503910  20.6327470  42.6748833  92.0578284
  20.4058114  43.7432103  93.1061878  24.7304594  46.2445966  96.0673417
  24.9490603  47.1763074  96.0861451  25.1430367  45.8853941  96.8528221
  31.6508811  36.7514051  88.0549105  30.8409540  36.4061136  88.4304351
  32.3393228  36.4421595  88.6436717  33.5799360  35.8292098  89.6773402
  34.1330398  36.2487552  90.3363425  33.8169446  34.9027846  89.7196358
  28.8045530  39.0664097  82.0416843  29.6664694  39.3918995  82.3012660
  28.9895874  38.2795593  81.5289909  20.8212946  47.1486437  94.3197032
  20.1276417  46.7340389  93.8066986  21.5685937  47.1906973  93.7230451
  36.9578167  37.9392623  89.1852066  36.3776836  38.5977427  88.8030118
  36.6914099  37.1169968  88.7739484  35.4081733  37.3397681  91.3873386
  35.9081511  37.4514216  90.5787705  36.0517341  37.0358734  92.0274195
  22.7349689  47.0804690  92.1963047  22.7120377  47.1792378  91.2444930
  23.0450325  47.9269841  92.5180213  25.3937066  49.1380845  96.3109661
  26.3480320  49.1064788  96.2439593  25.1949590  48.6771469  97.1259887
  25.9836449  47.7081962  98.8780459  26.8029338  48.2026040  98.9015296
  26.2573256  46.7913930  98.8498026  35.7403045  40.0992714  88.2408414
  34.8528900  40.3842364  88.0228609  36.1557034  39.9386477  87.3935691
  39.0917581  40.1239235  91.9562754  39.8677971  40.6135687  92.2287370
  38.3665715  40.5497289  92.4134623  41.5290140  40.8366854  93.0136694
  42.1234630  40.5962590  92.3030002  41.6016723  40.1173985  93.6410230
  23.7487295  54.6800465  93.3279859  23.6141763  53.9200866  92.7617857
  23.3319357  55.4041365  92.8608648  34.8846258  49.8637388  82.3356434
  35.5882108  50.0687391  82.9514090  34.1608907  50.4314150  82.6005518
  35.7144069  45.6147250  88.4558704  35.6579270  46.0715801  87.6166337
  36.2672411  44.8537934  88.2781547  39.5248874  41.4036982  89.2808824
  39.2685809  41.0033617  90.1117032  38.9001742  42.1180776  89.1558963
  43.8361212  44.1433055  91.7880115  43.2760770  44.2126244  92.5611677
  43.2304716  43.9674039  91.0679612  26.9056421  55.5769782  93.5398302
  26.7888805  56.5215214  93.4376992  26.0848867  55.2743344  93.9284101
  36.7932956  50.3019918  84.3854894  37.6278560  49.8701116  84.2032369
  36.6317299  50.1301931  85.3131789  36.4478848  46.8052031  85.7511234
  36.3927652  46.6396302  84.8099678  35.8224903  47.5128064  85.9073423
  33.7624755  49.1100943 105.0764796  34.6315915  49.2841595 104.7151431
  33.2831506  49.9295360 104.9540526  29.7574973  36.3060140  85.3296552
  29.7453643  37.2501980  85.4864823  30.6498395  36.1230285  85.0356013
  27.9310935  56.2298044  96.7554230  28.8338182  56.2621654  97.0720725
  27.7048305  55.2998495  96.7700566  29.6864537  54.9829030  93.4164309
  28.7360168  54.9830892  93.3028681  29.9897023  54.2361765  92.9000343
  33.5727093  32.9002917  89.5842489  32.8059489  32.3461403  89.7299171
  33.9837798  32.9724785  90.4456640  45.4217231  60.8189569  94.4810071
  46.0595641  60.6996316  93.7773411  45.3038074  61.7670413  94.5398023
  42.2306937  60.7716997  94.4171596  41.8925449  60.6558062  93.5292131
  43.0996705  60.3708162  94.3972602  38.0893753  62.6252473  90.4068487
  37.5258618  62.5342410  89.6384775  37.9746148  61.8052378  90.8870979
  42.7126720  61.9251849 100.3757801  42.7015361  61.5304647  99.5038305
  42.8747359  61.1917921 100.9691573  35.6358185  64.1203665  93.2452707
  36.4279477  63.7794490  92.8299007  35.8754835  64.2298640  94.1654861
  43.6693311  66.2923441  85.7182952  43.0181291  66.8777521  85.3316965
  44.4637674  66.8229636  85.7777989  39.4333981  64.7088960  99.3236985
  39.1423847  65.6134591  99.2083652  40.0690966  64.7505488 100.0381055
  40.3590188  62.0865809  95.9138345  40.9553760  61.8621831  95.1995308
  40.4165160  61.3450554  96.5163793  44.9758499  58.5441023  91.5563279
  45.7621588  58.1260446  91.2053696  45.2397204  59.4487115  91.7244928
  45.1468577  63.9813873  86.2551936  44.5114410  64.0548499  86.9672841
  44.8165983  64.5707472  85.5771015  50.3766926  58.4816256  92.4596258
  51.1092098  57.9115473  92.6934087  49.6206282  58.0937856  92.9002763
  41.9943046  60.9043497  89.6559600  41.6301253  60.3774118  90.3672522
  42.8510162  60.5141966  89.4826086  47.8992347  52.1937830  96.9190866
  47.5675671  53.0633241  96.6952081  47.3037960  51.8774114  97.5984897
  41.6348533  55.9333397  84.6520949  41.8022935  56.8013633  85.0191420
  41.4445702  56.0960679  83.7282238  44.3923866  64.3950376  96.3186779
  44.0924589  65.2975415  96.2102586  44.0474926  64.1282559  97.1707932
  37.8436348  60.8464173  92.3523483  36.9186844  60.7140387  92.5601175
  38.0920761  61.6258392  92.8493426  47.7921010  56.9132916  93.9984216
  46.8837887  56.8448325  93.7042977  47.7408606  57.3904861  94.8266042
  35.2045159  60.4897446  93.1867273  35.3337540  60.7431925  94.1006684
  34.5242610  61.0825154  92.8671928  39.3744646  71.1594696  89.2857747
  39.2968676  72.1102521  89.3646227  38.7706290  70.8140569  89.9432673
  41.8661876  58.3322562 101.9419114  41.0895210  58.8916482 101.9321978
  42.5052439  58.8179345 102.4633984  49.6582656  55.1149355  95.7762090
  49.0157037  55.4081888  95.1301885  49.1537585  55.0002275  96.5815287
  47.3122820  58.8612528  86.4647950  48.2240676  59.0939914  86.2895647
  46.8032467  59.4449572  85.9023028  40.1208248  61.1408015 101.5037081
  40.8622932  61.6793059 101.2271904  39.4145234  61.7674304 101.6608632
  45.5963588  63.2837156 100.1009242  46.0046944  62.8419566  99.3563874
  44.8740849  62.7089783 100.3543435  41.9494658  58.2209762  97.4742799
  42.7955853  58.6449176  97.6177448  41.8893295  57.5643387  98.1681362
  45.9192402  63.8438346  93.8561531  45.2901265  64.0084060  93.1537599
  45.5318064  64.2579956  94.6272495  49.7981634  64.7792784  91.2105895
  49.1132672  65.1591685  90.6602928  49.8825484  65.3888111  91.9437842
  45.0994103  55.8814131  99.1323973  44.8555035  56.6356191  98.5958248
  45.3754034  56.2599478  99.9671220  47.0532566  62.4252743  97.8101238
  47.2649461  63.0684503  97.1335619  47.0062314  61.5915060  97.3423168
  44.6558795  55.0370564  94.7137810  43.7943274  55.3351817  95.0054548
  44.6821230  55.2540963  93.7818843  41.4720364  63.5812754  91.1211616
  41.9358710  63.8600457  90.3316239  41.2077162  62.6796199  90.9384707
  38.3644445  63.1284236  94.0591379  38.9345802  63.5571504  93.4208864
  38.9552557  62.8466821  94.7575565  40.4089250  59.7035907  87.9301181
  41.1113294  60.1556950  88.3975108  40.0769879  59.0619725  88.5581074
  38.8569612  58.2947663 102.3052391  38.2268272  58.9763944 102.5387787
  38.7505700  58.1830745 101.3605529  34.1514584  57.9619459  93.2318315
  33.3613638  58.2176988  92.7558425  34.6425832  58.7767797  93.3370355
  48.1678394  65.3024698  95.9823596  48.9895838  64.9004886  95.7006277
  48.1640797  65.1992933  96.9339711  36.1029330  58.3264039  90.1901791
  35.3060493  58.4382733  90.7085287  35.8754922  58.6650691  89.3242682
  41.9334997  64.8508742  98.1384306  41.9979430  65.3129149  98.9742478
  41.2245921  64.2206107  98.2666616  32.4352287  58.2149950  95.6633306
  32.6860326  59.0996960  95.9290882  32.9711836  58.0354551  94.8908397
  56.2584387  61.6463447  92.3308567  55.5048095  61.0770845  92.1752572
  56.3931928  61.6126111  93.2779202  38.1350355  52.5968429 104.6677642
  37.7417300  52.0434628 105.3425286  38.9516495  52.9079008 105.0584159
  36.9107297  67.1518044  90.6613965  37.0873925  68.0736008  90.4734949
  37.7064131  66.8376463  91.0908344  41.0518316  54.0126308 102.2597898
  41.7928029  54.6133461 102.1802361  41.2836238  53.2703946 101.7015941
  36.1959654  59.1982675 100.5376128  36.0813169  58.2967933 100.8383227
  35.3404171  59.4446372 100.1860944  43.2751491  67.1400416 102.1363629
  42.8315346  66.3536794 101.8184533  43.9368705  67.3279566 101.4707519
  38.0338613  68.6696217  96.6624307  38.5846038  68.5413281  95.8901301
  37.1950088  68.9691106  96.3119200  45.3732729  67.4203216 100.1645030
  45.3551205  68.2412097  99.6725299  46.2952649  67.2957291 100.3895171
  41.8305784  64.9347345 101.0068538  42.3634120  64.1735633 100.7767846
  41.3019865  64.6420997 101.7492693  44.9975479  50.0407411  96.5362180
  44.6539748  50.9309053  96.4601290  45.3654441  49.8509069  95.6731765
  42.5472872  54.8765723  90.1019853  41.6914469  54.4872573  89.9225492
  42.9599824  54.9557684  89.2419639  44.0772019  52.4112066  94.5011413
  43.5736814  52.3742201  93.6879218  44.3702626  53.3204809  94.5608070
  40.3214905  52.4950796  93.5077595  41.1867902  52.2993605  93.1483484
  40.3892414  52.2661148  94.4346952  49.9360035  62.7848377  86.9787788
  49.1589478  62.4459536  86.5342951  50.6151516  62.7901000  86.3042754
  44.7512064  57.9043114  86.8694396  44.4462200  58.2189264  87.7204539
  45.7042507  57.9824534  86.9121729  43.1958496  64.0633338  88.5187350
  42.6679858  63.3286097  88.2060588  42.6945999  64.8408014  88.2727318
  48.1751342  62.2582358  93.6354396  47.5175017  62.9481620  93.7234525
  48.9791741  62.6478790  93.9788383  37.9277224  54.7253004  90.8793962
  38.5020976  54.5028185  90.1467155  38.5148206  54.7941698  91.6322563
  46.9856801  60.6126731  91.6858338  47.4988683  61.2456723  92.1880048
  47.6358025  60.0127926  91.3201698  38.2546811  56.7557465  84.8989847
  37.4184123  57.0932152  85.2199122  38.1151581  56.6206445  83.9616984
  40.2299892  51.5994253  89.6069031  39.5764304  51.2843270  88.9825646
  40.1880366  50.9769993  90.3328854  44.2479175  70.5911055  84.4419009
  43.5740874  70.8942752  85.0503967  44.6344997  71.3940135  84.0924466
  43.4637632  58.0876186  93.9316679  42.5460193  58.3091133  93.7738367
  43.8797776  58.1622497  93.0728386  44.2472680  59.4867602  89.0619359
  44.9944499  59.9988999  88.7526481  44.5164269  59.1651655  89.9223753
  47.7518597  65.5932732  89.8137481  47.2980924  64.7523642  89.8702671
  47.1212564  66.2294131  90.1512261  46.6951517  56.5224718  91.0438148
  45.9574274  56.0102105  91.3748391  46.9478290  56.0825100  90.2321425
  46.1951537  67.4309229  90.7487299  46.4874511  67.9914286  90.0299665
  46.7050157  67.7237790  91.5040458  46.7963144  49.3000970  91.6379918
  47.1022021  48.4398334  91.3505833  47.5215749  49.8918591  91.4378911
  41.0684224  59.5954763  92.1456109  41.1232834  58.6428600  92.0698585
  40.2575426  59.7514202  92.6297407  39.0076584  58.2131823  89.9046488
  38.1944449  58.5125994  90.3111680  39.5035578  57.8187512  90.6220970
  41.1585162  68.2089580  91.8380752  41.1161341  68.4350426  90.9089284
  42.0747861  67.9752955  91.9866553  44.6050796  58.6773648  98.7361381
  44.9600183  58.9045121  99.5955847  45.2522927  59.0092024  98.1138637
  50.3348532  61.7992083  89.4410710  50.1966431  61.9893679  88.5131900
  49.9784751  62.5611466  89.8978762  38.4990659  55.7850179  95.5207722
  39.1390038  55.6438938  94.8230686  37.6668189  55.4984692  95.1446324
  50.3617912  63.8668611  94.4521982  50.7954419  63.7743900  95.3005036
  51.0749493  63.8426111  93.8141998  39.2750962  65.0852609  91.6342715
  40.0691561  64.5902929  91.4325290  38.5642655  64.5570472  91.2710420
  44.0945807  67.4670705  95.9855083  44.1482829  68.0361641  96.7532798
  43.2260588  67.6372590  95.6209120  35.5019275  55.7550504  90.2980709
  35.7626092  56.6695837  90.1889870  36.3236447  55.2874946  90.4477322
  36.9744200  57.1688261  97.4679534  37.6467254  56.9605623  96.8192183
  36.1473987  56.9710347  97.0284766  51.2233462  63.9092311  96.9854867
  51.4169352  64.8138122  97.2314142  51.1234080  63.4499730  97.8193452
  42.8769772  53.7950202  99.4845195  42.2297687  54.4940151  99.3909671
  43.6470788  54.2286346  99.8521443  46.2848570  64.0599054 102.5595748
  46.1334077  63.8309606 101.6425832  46.2753250  65.0169655 102.5727093
  43.0533907  61.6330967  97.5442014  43.9825967  61.7842126  97.3710982
  42.6324937  61.7214987  96.6890661  41.8522238  65.6581631  95.3140552
  41.7133324  65.2900415  96.1866490  41.0636835  66.1729270  95.1424510
  42.4470390  70.7590728  86.6566089  42.6222146  70.2878771  87.4711711
  41.7603178  71.3856494  86.8847349  43.4027454  65.0363234  92.7029390
  43.0677286  64.9964004  93.5987040  42.9031399  64.3707950  92.2299800
  37.3771698  60.4430864  98.2281971  37.2391496  59.7111103  98.8293510
  38.2876621  60.3539764  97.9466159  46.3386645  62.3819268  82.9766449
  45.7215816  61.6566096  82.8799502  45.8703134  63.1428628  82.6333524
  40.0053998  60.1550823  97.7165651  40.7153617  59.5144015  97.6752269
  39.9623306  60.4063718  98.6391831  47.9940777  67.0918176 100.6372230
  47.9353323  66.4077397  99.9702813  48.3960295  67.8337166 100.1852856
  38.7182932  57.1416041  99.5361290  38.1820289  56.6906779 100.1882886
  38.1299641  57.2761950  98.7931754  37.0131476  73.9080090  93.4305949
  37.2528074  74.5398614  94.1084967  36.1700672  73.5568130  93.7171308
  47.9958184  65.0557760  98.8686209  47.1084963  64.7183682  98.9912608
  48.5656735  64.3240792  99.1054975  29.6487331  61.3881852  92.1929261
  30.3358371  61.0743582  91.6050276  29.4935460  62.2923217  91.9196512
  34.4522053  56.2772049  96.6214285  34.3680242  55.6697718  95.8864695
  33.6304760  56.7681067  96.6223781  41.5259338  69.7159213  95.8347453
  41.4529509  70.5214184  96.3466757  41.0836731  69.9151179  95.0095474
  41.3149117  68.9530983  89.3450274  40.5316639  69.4952663  89.4388499
  42.0141862  69.4704962  89.7444515  44.6245767  54.7625612  91.9884480
  45.1214467  54.0095575  91.6685550  43.8532749  54.7989929  91.4227689
  52.4775525  60.4665978  93.6302771  52.4665401  61.3490693  93.2596704
  51.6092904  60.1137529  93.4357308  43.9858021  69.6146047  97.9905611
  44.6985993  70.2493512  97.9181513  43.4948050  69.7109913  97.1745613
  45.7075548  63.5197299  89.5622903  44.7731827  63.6398762  89.3927607
  45.8852216  62.6169766  89.2982913  41.2080736  56.9042995  91.7156164
  40.8378524  56.3514036  92.4037070  41.7039829  56.3001129  91.1631164
  49.0948099  59.3614619  90.0972937  49.5608552  60.1942610  90.0233240
  49.5455600  58.8959600  90.8018196  39.0369935  67.3640490  98.8111182
  39.7379394  67.9976973  98.9640576  38.5665050  67.7055222  98.0506821
  47.1624330  65.7058440  87.0959089  47.4384174  65.5915035  88.0052963
  46.2928829  65.3075925  87.0571262  47.0664762  51.7295206  94.1363838
  46.1527842  51.9599433  94.3046045  47.4957864  51.8133650  94.9877871
  46.8371221  59.9185098  96.6363733  46.1842671  60.1661005  95.9816185
  47.2151601  59.1049236  96.3026210  43.7978395  69.9544791  90.7391903
  43.9800789  69.1366447  91.2019655  44.6211381  70.1712483  90.3016793
  44.1320560  68.8812976  88.0006951  44.6608326  68.3705431  87.3877113
  44.3948780  68.5655506  88.8652484  42.8858794  60.6604909 103.1229770
  42.2099431  60.5599038 103.7932145  43.7086428  60.5044122 103.5865767
  34.6337653  66.8976845  95.7442285  35.2191090  66.1520533  95.8770189
  34.4362491  67.2080802  96.6278949  37.4876308  69.9328093  90.7604727
  36.8186683  70.4174220  90.2768767  37.3489178  70.1797313  91.6748106
  29.2255307  59.4682445  94.4646728  29.2639407  58.9346036  95.2583846
  28.7195600  58.9417651  93.8457705  41.6281577  71.9671836  97.3587386
  42.1799885  72.1303458  98.1236471  41.9687770  72.5576274  96.6867410
  36.6046070  54.3146986  97.9609270  36.6687396  55.1761817  97.5486668
  36.5413190  53.7020988  97.2281629  36.0798342  56.3870119 101.6082305
  36.7070381  56.0047196 102.2219829  35.2226261  56.1684320 101.9737997
  46.4792451  66.7933094 103.2136040  47.0232355  67.4063052 102.7190995
  45.8979296  67.3512672 103.7303053  44.7649964  69.9153812  94.3451068
  44.6401103  69.1143552  93.8362013  45.4229055  70.4100005  93.8565038
  36.3858132  56.2702544  93.5228208  35.6644718  56.8838512  93.3835681
  37.1751388  56.8060309  93.4444854  46.8284872  67.7162832  95.9730618
  45.8815208  67.5968183  95.9008945  47.1767645  66.8285330  96.0556879
  39.1884446  53.6056971  99.7968860  39.7118847  53.8519267 100.5595169
  38.9696779  54.4377006  99.3771997  34.5851727  55.8760645  87.6639985
  34.2564433  54.9958024  87.4815090  34.9391097  55.8208314  88.5516374
  43.8331305  67.5115548  92.1734970  43.6856268  66.5832255  92.3542540
  44.6584799  67.5335639  91.6892045  37.6993550  56.1633615  88.0315462
  38.0389622  56.6919536  87.3094071  38.1465670  56.5014021  88.8074029
  47.4365427  68.3344107  93.2599843  48.3611975  68.1286968  93.1224294
  47.2680731  68.0860508  94.1689184  40.3936991  54.5470666  97.4818530
  40.0533811  53.7478479  97.8839210  39.6875997  54.8472377  96.9095363
  41.0453462  51.6319978  95.9345853  41.8679532  51.1580456  95.8124744
  41.2891526  52.4110462  96.4344540  39.6861697  54.6608237  86.2308755
  40.4070059  55.0389489  85.7272472  39.0627001  55.3797114  86.3343733
  43.8292820  55.3653386  87.1667087  44.0456434  56.2478024  86.8655915
  43.3486887  54.9739599  86.4372729  38.5692041  58.3239099  93.7437832
  38.4236622  58.6379402  94.6362113  38.0917245  58.9423999  93.1908731
  40.4288424  55.3141647  93.7918721  40.4149993  54.4182740  93.4551019
  41.1460852  55.3212311  94.4257008  42.2814555  55.7478987  95.8371849
  42.0232333  56.6696058  95.8356179  41.7499595  55.3509422  96.5272313
  47.2260744  68.8529774  88.6161934  47.3997621  68.2876197  87.8635787
  47.7189635  69.6530669  88.4341424  33.0437703  60.8644443  96.6825493
  32.4991171  61.6404251  96.8145767  33.9217053  61.2115248  96.5244615
  39.8325320  54.1956027  89.0606292  39.9541231  53.2672673  89.2597179
  39.5427362  54.2094713  88.1484607  42.7016510  51.8810938  92.1973011
  42.7238207  51.9450271  91.2424991  43.1184569  51.0415446  92.3913518
  53.0800135  61.6166197  90.2352234  53.5231281  60.8673522  89.8371357
  52.2026645  61.6076334  89.8525966  48.2135916  68.1696539  85.7158833
  48.9086821  68.7903231  85.9346147  48.5559066  67.3191890  85.9911210
  33.8303725  59.9914340  99.5755650  33.0885461  60.1396975 100.1620280
  33.5096469  60.2522605  98.7122399  50.1127339  65.6196244  87.2446163
  50.6378663  65.9583517  86.5195483  50.0249692  64.6843259  87.0609298
  41.7747388  69.5330318  99.3736040  42.0834514  69.2879465 100.2458740
  42.5722870  69.7376956  98.8854910  41.7968000  71.6868227  91.6041417
  41.3572990  71.1944606  92.2974273  42.5476117  71.1441195  91.3633492
  34.2760339  67.8779768  91.6066045  35.1018359  67.5783540  91.2264688
  33.9254391  67.1087391  92.0555833  39.2441872  67.2306237  93.6763718
  38.6221881  66.5676942  93.3765946  39.9146739  67.2567368  92.9937366
  32.4768944  65.7966095  92.5654978  31.6400852  65.3688269  92.3838979
  32.4492589  65.9898538  93.5025769  39.3166400  55.7088025 103.2696224
  39.3654555  56.5850147 102.8873994  39.8588914  55.1665418 102.6967867
  49.8021245  66.2529148 102.5497361  49.0116789  66.2353287 102.0101861
  49.5654600  66.7917441 103.3046398  49.9219120  63.1021614  99.8630090
  49.9717125  62.9371622 100.8045613  49.8133044  62.2348873  99.4727971
  47.2122883  59.0852542 101.1789397  48.1132745  58.9459007 100.8873394
  47.2870857  59.2506997 102.1187574  41.5465688  56.4619397 100.0242583
  40.6768997  56.7552963  99.7525171  41.7825168  57.0459842 100.7449846
  51.4237317  65.5218556 100.1072111  51.1322125  65.8848536 100.9435572
  50.8109448  64.8085564  99.9285443  52.6232999  63.0871435  92.6274682
  53.4579891  63.5261240  92.7912242  52.7592128  62.6110089  91.8082927
  49.6724505  60.6451170  98.5752169  50.1478627  60.8378817  97.7671021
  48.7490071  60.7010356  98.3295553  44.2504722  52.6799014  97.5408003
  44.7686666  53.4160041  97.2154492  43.8959855  52.9863007  98.3754762
  35.8303659  57.5403695  85.6569409  35.1372904  57.6148050  85.0009445
  35.5855411  56.7764039  86.1790926  44.5017316  49.0999296  93.0608900
  44.7819070  48.4322485  93.6869326  45.2867923  49.2928392  92.5483564
  42.3050784  68.2758290  84.6233926  41.7324752  68.8948477  84.1704398
  42.8783578  68.8257652  85.1573848  48.3726174  57.5216930  96.8080475
  49.3243597  57.6215028  96.8292699  48.2029625  56.7295199  97.3178559
  46.3940554  54.6072514  96.9939876  45.7990486  54.8877526  96.2986364
  46.1090251  55.0966415  97.7656617  45.5248044  68.5595440  85.7542508
  46.4578717  68.4941002  85.9575384  45.4371257  69.3951707  85.2957041
  48.1536061  67.8761311  82.7146456  48.0749692  67.5421174  83.6082214
  48.9745728  68.3683079  82.7137928  50.8514252  60.7423050  95.9222775
  50.8190572  59.8039051  96.1082458  51.4614876  60.8207087  95.1888599
  51.0008741  57.5334094  95.9681058  50.4847789  56.7492550  95.7810987
  51.8848689  57.2052810  96.1327577  48.6619468  51.2775109  91.9276870
  48.4644289  50.9690197  92.8120202  49.2719173  52.0036748  92.0574800
  56.6690802  61.8039057  95.0628811  57.3994190  61.5424345  95.6236515
  56.0597747  61.0667779  95.1030879  54.7506099  59.9446919  95.6603263
  54.0239263  59.8102884  95.0519754  54.3353386  60.2523748  96.4659981
  42.5736276  63.6636849 103.4250636  43.4939285  63.8415448 103.6190682
  42.5385859  62.7192895 103.2730335  31.7918441  58.8575443  92.3503910
  31.4721225  58.0040751  92.0578284  31.2451869  59.0724021  93.1061878
  35.5698348  61.5737884  96.0673417  35.7884358  62.5054992  96.0861451
  35.9824122  61.2145858  96.8528221  42.4902566  52.0805969  88.0549105
  41.6803294  51.7353054  88.4304351  43.1786983  51.7713513  88.6436717
  44.4193114  51.1584016  89.6773402  44.9724153  51.5779469  90.3363425
  44.6563201  50.2319764  89.7196358  40.4426213  57.1471090 105.4576166
  40.3422940  58.0965447 105.3888257  40.2247755  56.8189329 104.5852236
  31.6606701  62.4778354  94.3197032  30.9670172  62.0632307  93.8066986
  32.4079692  62.5198891  93.7230451  47.7971921  53.2684541  89.1852066
  47.2170590  53.9269345  88.8030118  47.5307854  52.4461886  88.7739484
  46.2475488  52.6689599  91.3873386  46.7475266  52.7806133  90.5787705
  46.8911096  52.3650652  92.0274195  40.3057483  60.5768228 104.2741227
  39.8224565  61.3768589 104.4805116  40.3918422  60.5876173 103.3208671
  33.5743443  62.4096608  92.1963047  33.5514131  62.5084295  91.2444930
  33.8844080  63.2561759  92.5180213  36.2330821  64.4672763  96.3109661
  37.1874074  64.4356705  96.2439593  36.0343345  64.0063387  97.1259887
  36.8230203  63.0373879  98.8780459  37.6423092  63.5317958  98.9015296
  37.0967011  62.1205847  98.8498026  46.5796799  55.4284631  88.2408414
  45.6922654  55.7134282  88.0228609  46.9950788  55.2678395  87.3935691
  49.9311335  55.4531152  91.9562754  50.7071726  55.9427605  92.2287370
  49.2059470  55.8789207  92.4134623  52.3683894  56.1658772  93.0136694
  52.9628385  55.9254508  92.3030002  52.4410478  55.4465902  93.6410230
  34.5881050  70.0092383  93.3279859  34.4535518  69.2492784  92.7617857
  34.1713112  70.7333282  92.8608648  46.5537823  60.9439167  88.4558704
  46.4973024  61.4007719  87.6166337  47.1066165  60.1829852  88.2781547
  50.3642629  56.7328899  89.2808824  50.1079563  56.3325535  90.1117032
  49.7395497  57.4472693  89.1558963  54.6754967  59.4724973  91.7880115
  54.1154525  59.5418162  92.5611677  54.0698470  59.2965957  91.0679612
  37.7450176  70.9061700  93.5398302  37.6282560  71.8507132  93.4376992
  36.9242622  70.6035261  93.9284101  47.6326710  65.6311835  84.3854894
  48.4672314  65.1993034  84.2032369  47.4711053  65.4593849  85.3131789
  47.2872602  62.1343949  85.7511234  47.2321406  61.9688220  84.8099678
  46.6618658  62.8419982  85.9073423  32.0765117  57.3712013  99.5772656
  32.7223981  56.8610967 100.0659881  31.8682268  58.1080695 100.1516081
  44.6018509  64.4392861 105.0764796  45.4709669  64.6133513 104.7151431
  44.1225261  65.2587277 104.9540526  40.5968728  51.6352058  85.3296552
  40.5847398  52.5793898  85.4864823  41.4892150  51.4522203  85.0356013
  38.7704690  71.5589962  96.7554230  39.6731936  71.5913572  97.0720725
  38.5442060  70.6290412  96.7700566  40.5258292  70.3120948  93.4164309
  39.5753923  70.3122810  93.3028681  40.8290778  69.5653683  92.9000343
  44.4120847  48.2294834  89.5842489  43.6453243  47.6753321  89.7299171
  44.8231552  48.3016703  90.4456640  36.4162608  54.5179630 103.6747670
  37.2794070  54.1616435 103.8850995  35.8428019  54.1793525 104.3623074
  56.2610985  76.1481486  94.4810071  56.8989395  76.0288234  93.7773411
  56.1431828  77.0962330  94.5398023  53.0700692  76.1008915  94.4171596
  52.7319203  75.9849979  93.5292131  53.9390460  75.7000080  94.3972602
  48.9287507  77.9544391  90.4068487  48.3652372  77.8634328  89.6384775
  48.8139902  77.1344295  90.8870979  53.5520474  77.2543766 100.3757801
  53.5409115  76.8596565  99.5038305  53.7141114  76.5209839 100.9691573
  46.4751939  79.4495583  93.2452707  47.2673231  79.1086407  92.8299007
  46.7148589  79.5590558  94.1654861  54.5087066  81.6215359  85.7182952
  53.8575046  82.2069439  85.3316965  55.3031429  82.1521554  85.7777989
  48.4342693  78.7104496  86.1170086  49.2073569  78.1633483  85.9782962
  48.7868092  79.5748745  86.3284547  50.2727736  80.0380878  99.3236985
  49.9817602  80.9426509  99.2083652  50.9084720  80.0797406 100.0381055
  51.1983942  77.4157727  95.9138345  51.7947515  77.1913749  95.1995308
  51.2558914  76.6742472  96.5163793  50.7708971  74.8697162  83.7488536
  51.0234492  74.3478683  82.9871999  49.8333530  74.7063307  83.8515220
  55.8152254  73.8732940  91.5563279  56.6015343  73.4552363  91.2053696
  56.0790958  74.7779033  91.7244928  55.9862331  79.3105791  86.2551936
  55.3508164  79.3840417  86.9672841  55.6559737  79.8999389  85.5771015
  61.2160681  73.8108174  92.4596258  61.9485853  73.2407390  92.6934087
  60.4600037  73.4229774  92.9002763  50.4905260  76.7725268  85.9512911
  50.3741518  76.0970171  86.6193995  50.6007520  76.2857642  85.1345064
  52.8336801  76.2335415  89.6559600  52.4695008  75.7066036  90.3672522
  53.6903916  75.8433884  89.4826086  58.7386101  67.5229748  96.9190866
  58.4069426  68.3925159  96.6952081  58.1431715  67.2066032  97.5984897
  52.4742288  71.2625315  84.6520949  52.6416690  72.1305551  85.0191420
  52.2839457  71.4252596  83.7282238  55.2317621  79.7242294  96.3186779
  54.9318344  80.6267332  96.2102586  54.8868680  79.4574477  97.1707932
  48.6830102  76.1756090  92.3523483  47.7580599  76.0432305  92.5601175
  48.9314515  76.9550310  92.8493426  58.6314765  72.2424834  93.9984216
  57.7231642  72.1740242  93.7042977  58.5802360  72.7196779  94.8266042
  52.4531508  73.7182972  85.6367615  52.3331134  74.1640023  86.4753096
  51.7584097  74.0668290  85.0781154  46.0438913  75.8189364  93.1867273
  46.1731294  76.0723843  94.1006684  45.3636365  76.4117072  92.8671928
  50.2138401  86.4886614  89.2857747  50.1362430  87.4394439  89.3646227
  49.6100044  86.1432486  89.9432673  52.7055630  73.6614479 101.9419114
  51.9288964  74.2208400 101.9321978  53.3446193  74.1471262 102.4633984
  60.4976411  70.4441272  95.7762090  59.8550791  70.7373805  95.1301885
  59.9931339  70.3294193  96.5815287  58.1516575  74.1904445  86.4647950
  59.0634431  74.4231832  86.2895647  57.6426222  74.7741490  85.9023028
  50.9602003  76.4699933 101.5037081  51.7016687  77.0084977 101.2271904
  50.2538988  77.0966222 101.6608632  56.4357342  78.6129073 100.1009242
  56.8440698  78.1711484  99.3563874  55.7134604  78.0381701 100.3543435
  52.7888412  73.5501680  97.4742799  53.6349607  73.9741094  97.6177448
  52.7287050  72.8935304  98.1681362  56.7586157  79.1730264  93.8561531
  56.1295019  79.3375978  93.1537599  56.3711819  79.5871873  94.6272495
  60.6375389  80.1084702  91.2105895  59.9526427  80.4883603  90.6602928
  60.7219238  80.7180028  91.9437842  55.9387858  71.2106048  99.1323973
  55.6948789  71.9648109  98.5958248  56.2147788  71.5891396  99.9671220
  57.8926320  77.7544661  97.8101238  58.1043216  78.3976421  97.1335619
  57.8456069  76.9206977  97.3423168  55.4952549  70.3662481  94.7137810
  54.6337028  70.6643735  95.0054548  55.5214984  70.5832880  93.7818843
  52.3114119  78.9104672  91.1211616  52.7752464  79.1892375  90.3316239
  52.0470917  78.0088117  90.9384707  49.2038200  78.4576153  94.0591379
  49.7739557  78.8863422  93.4208864  49.7946312  78.1758738  94.7575565
  51.2483005  75.0327824  87.9301181  51.9507048  75.4848868  88.3975108
  50.9163633  74.3911643  88.5581074  49.6963366  73.6239581 102.3052391
  49.0662027  74.3055862 102.5387787  49.5899454  73.5122663 101.3605529
  44.9908339  73.2911377  93.2318315  44.2007393  73.5468906  92.7558425
  45.4819586  74.1059715  93.3370355  59.0072148  80.6316616  95.9823596
  59.8289592  80.2296803  95.7006277  59.0034551  80.5284850  96.9339711
  46.9423084  73.6555956  90.1901791  46.1454247  73.7674650  90.7085287
  46.7148676  73.9942608  89.3242682  52.7728752  80.1800659  98.1384306
  52.8373184  80.6421067  98.9742478  52.0639676  79.5498024  98.2666616
  43.2746042  73.5441867  95.6633306  43.5254080  74.4288877  95.9290882
  43.8105590  73.3646469  94.8908397  67.0978141  76.9755365  92.3308567
  66.3441850  76.4062763  92.1752572  67.2325683  76.9418029  93.2779202
  52.4876769  81.8468767  88.0063286  52.3522444  82.6920303  88.4348134
  53.0286582  82.0488045  87.2429220  48.9744109  67.9260347 104.6677642
  48.5811055  67.3726545 105.3425286  49.7910249  68.2370925 105.0584159
  45.9406167  79.3644205  88.5791212  46.4530687  80.1587455  88.7296776
  46.5928880  78.6670495  88.5124813  47.7501052  82.4809961  90.6613965
  47.9267680  83.4027926  90.4734949  48.5457885  82.1668380  91.0908344
  51.8912070  69.3418226 102.2597898  52.6321783  69.9425379 102.1802361
  52.1229993  68.5995864 101.7015941  47.0353408  74.5274593 100.5376128
  46.9206923  73.6259850 100.8383227  46.1797926  74.7738290 100.1860944
  48.8732367  83.9988135  96.6624307  49.4239792  83.8705198  95.8901301
  48.0343843  84.2983024  96.3119200  52.6699538  80.2639263 101.0068538
  53.2027875  79.5027551 100.7767846  52.1413619  79.9712915 101.7492693
  55.8369233  65.3699329  96.5362180  55.4933502  66.2600970  96.4601290
  56.2048196  65.1800986  95.6731765  43.9055084  77.6932859  89.3550782
  44.7430306  78.1029868  89.1384490  44.0833351  76.7532301  89.3250976
  55.8019516  75.3607940  85.0434615  55.2866139  76.1312545  85.2823002
  55.5296824  74.6873076  85.6667676  53.3866627  70.2057641  90.1019853
  52.5308223  69.8164491  89.9225492  53.7993579  70.2849602  89.2419639
  54.9165773  67.7403984  94.5011413  54.4130569  67.7034119  93.6879218
  55.2096380  68.6496727  94.5608070  51.1608659  67.8242714  93.5077595
  52.0261656  67.6285522  93.1483484  51.2286168  67.5953065  94.4346952
  60.7753790  78.1140295  86.9787788  59.9983233  77.7751454  86.5342951
  61.4545271  78.1192918  86.3042754  55.5905819  73.2335032  86.8694396
  55.2855954  73.5481181  87.7204539  56.5436261  73.3116452  86.9121729
  54.0352251  79.3925255  88.5187350  53.5073612  78.6578015  88.2060588
  53.5339753  80.1699932  88.2727318  59.0145097  77.5874276  93.6354396
  58.3568771  78.2773537  93.7234525  59.8185496  77.9770708  93.9788383
  48.7670978  70.0544922  90.8793962  49.3414730  69.8320103  90.1467155
  49.3541961  70.1233616  91.6322563  57.8250556  75.9418649  91.6858338
  58.3382437  76.5748640  92.1880048  58.4751779  75.3419844  91.3201698
  49.0940565  72.0849383  84.8989847  48.2577878  72.4224069  85.2199122
  48.9545335  71.9498362  83.9616984  51.0693646  66.9286171  89.6069031
  50.4158058  66.6135188  88.9825646  51.0274120  66.3061911  90.3328854
  52.1804851  77.2105466  81.5222323  51.2731913  76.9794719  81.7213472
  52.6775883  76.4143085  81.7096305  55.0872930  85.9202973  84.4419009
  54.4134629  86.2234670  85.0503967  55.4738752  86.7232053  84.0924466
  54.3031386  73.4168104  93.9316679  53.3853948  73.6383051  93.7738367
  54.7191530  73.4914415  93.0728386  55.0866434  74.8159520  89.0619359
  55.8338253  75.3280917  88.7526481  55.3558024  74.4943572  89.9223753
  53.3593084  77.3118060  86.0446313  52.4504304  77.0277093  86.1418783
  53.3888168  77.7317139  85.1849620  58.5912352  80.9224650  89.8137481
  58.1374679  80.0815560  89.8702671  57.9606318  81.5586048  90.1512261
  57.5345271  71.8516636  91.0438148  56.7968028  71.3394022  91.3748391
  57.7872045  71.4117018  90.2321425  57.0345291  82.7601147  90.7487299
  57.3268265  83.3206204  90.0299665  57.5443912  83.0529708  91.5040458
  57.6356899  64.6292888  91.6379918  57.9415775  63.7690251  91.3505833
  58.3609503  65.2210508  91.4378911  43.9281255  75.0323575  90.0261515
  43.7305655  74.4392935  89.3012582  43.3727919  74.7275785  90.7437454
  51.9077978  74.9246681  92.1456109  51.9626588  73.9720517  92.0698585
  51.0969180  75.0806120  92.6297407  53.0569172  78.8526804  83.3834392
  52.6188602  78.1362663  82.9240029  53.7979613  79.0802919  82.8219483
  49.8470338  73.5423741  89.9046488  49.0338204  73.8417911  90.3111680
  50.3429333  73.1479430  90.6220970  51.9978916  83.5381498  91.8380752
  51.9555095  83.7642344  90.9089284  52.9141615  83.3044872  91.9866553
  55.4444550  74.0065565  98.7361381  55.7993938  74.2337038  99.5955847
  56.0916681  74.3383942  98.1138637  61.1742287  77.1284001  89.4410710
  61.0360186  77.3185597  88.5131900  60.8178506  77.8903384  89.8978762
  49.3384413  71.1142096  95.5207722  49.9783792  70.9730855  94.8230686
  48.5061944  70.8276610  95.1446324  61.2011667  79.1960528  94.4521982
  61.6348173  79.1035817  95.3005036  61.9143247  79.1718029  93.8141998
  50.1144717  80.4144527  91.6342715  50.9085315  79.9194847  91.4325290
  49.4036409  79.8862390  91.2710420  54.9339561  82.7962622  95.9855083
  54.9876584  83.3653559  96.7532798  54.0654343  82.9664507  95.6209120
  46.4227480  74.5587608  87.7102468  45.4925069  74.4972064  87.9272430
  46.5184952  74.0363561  86.9139109  46.3413029  71.0842421  90.2980709
  46.6019847  71.9987755  90.1889870  47.1630202  70.6166864  90.4477322
  47.8137955  72.4980178  97.4679534  48.4861008  72.2897541  96.8192183
  46.9867741  72.3002264  97.0284766  62.0627216  79.2384229  96.9854867
  62.2563106  80.1430039  97.2314142  61.9627834  78.7791648  97.8193452
  53.7163527  69.1242119  99.4845195  53.0691442  69.8232069  99.3909671
  54.4864542  69.5578263  99.8521443  53.8927661  76.9622884  97.5442014
  54.8219721  77.1134044  97.3710982  53.4718691  77.0506905  96.6890661
  52.6915993  80.9873549  95.3140552  52.5527079  80.6192333  96.1866490
  51.9030589  81.5021188  95.1424510  53.2864145  86.0882645  86.6566089
  53.4615901  85.6170688  87.4711711  52.5996933  86.7148411  86.8847349
  54.2421208  80.3655151  92.7029390  53.9071041  80.3255921  93.5987040
  53.7425154  79.6999867  92.2299800  48.2165452  75.7722781  98.2281971
  48.0785250  75.0403020  98.8293510  49.1270376  75.6831682  97.9466159
  57.1780400  77.7111186  82.9766449  56.5609570  76.9858014  82.8799502
  56.7096888  78.4720546  82.6333524  50.8447753  75.4842741  97.7165651
  51.5547371  74.8435933  97.6752269  50.8017061  75.7355636  98.6391831
  49.5576687  72.4707959  99.5361290  49.0214044  72.0198697 100.1882886
  48.9693395  72.6053868  98.7931754  47.8525230  89.2372008  93.4305949
  48.0921828  89.8690532  94.1084967  47.0094427  88.8860048  93.7171308
  48.9678946  71.9296610  82.0987754  48.0908412  71.8085411  81.7350000
  49.4436699  71.1382688  81.8466642  58.8351939  80.3849678  98.8686209
  57.9478717  80.0475600  98.9912608  59.4050490  79.6532709  99.1054975
  40.4881086  76.7173770  92.1929261  41.1752126  76.4035500  91.6050276
  40.3329215  77.6215134  91.9196512  45.2915808  71.6063966  96.6214285
  45.2073997  70.9989636  95.8864695  44.4698514  72.0972985  96.6223781
  52.3653092  85.0451130  95.8347453  52.2923264  85.8506102  96.3466757
  51.9230485  85.2443096  95.0095474  52.1542872  84.2822900  89.3450274
  51.3710394  84.8244581  89.4388499  52.8535617  84.7996880  89.7444515
  55.4639522  70.0917530  91.9884480  55.9608221  69.3387492  91.6685550
  54.6926503  70.1281847  91.4227689  63.3169279  75.7957895  93.6302771
  63.3059155  76.6782611  93.2596704  62.4486659  75.4429446  93.4357308
  54.8251776  84.9437964  97.9905611  55.5379748  85.5785429  97.9181513
  54.3341804  85.0401830  97.1745613  56.5469303  78.8489217  89.5622903
  55.6125581  78.9690680  89.3927607  56.7245971  77.9461684  89.2982913
  52.0474491  72.2334913  91.7156164  51.6772278  71.6805953  92.4037070
  52.5433583  71.6293046  91.1631164  59.9341854  74.6906536  90.0972937
  60.4002306  75.5234528  90.0233240  60.3849354  74.2251518  90.8018196
  49.8763689  82.6932408  98.8111182  50.5773149  83.3268891  98.9640576
  49.4058804  83.0347139  98.0506821  58.0018085  81.0350358  87.0959089
  58.2777929  80.9206952  88.0052963  57.1322584  80.6367843  87.0571262
  57.9058517  67.0587123  94.1363838  56.9921596  67.2891350  94.3046045
  58.3351618  67.1425567  94.9877871  57.6764975  75.2477015  96.6363733
  57.0236425  75.4952923  95.9816185  58.0545355  74.4341154  96.3026210
  54.6372149  85.2836709  90.7391903  54.8194544  84.4658364  91.2019655
  55.4605135  85.5004401  90.3016793  54.9714314  84.2104894  88.0006951
  55.5002081  83.6997348  87.3877113  55.2342534  83.8947424  88.8652484
  53.7252548  75.9896826 103.1229770  53.0493185  75.8890956 103.7932145
  54.5480182  75.8336040 103.5865767  45.4731407  82.2268763  95.7442285
  46.0584844  81.4812451  95.8770189  45.2756246  82.5372720  96.6278949
  48.3270062  85.2620010  90.7604727  47.6580438  85.7466138  90.2768767
  48.1882932  85.5089231  91.6748106  40.0649062  74.7974363  94.4646728
  40.1033161  74.2637954  95.2583846  39.5589355  74.2709569  93.8457705
  52.4675331  87.2963754  97.3587386  53.0193639  87.4595375  98.1236471
  52.8081524  87.8868192  96.6867410  47.4439824  69.6438904  97.9609270
  47.5081151  70.5053735  97.5486668  47.3806944  69.0312905  97.2281629
  46.9192097  71.7162036 101.6082305  47.5464136  71.3339114 102.2219829
  46.0620016  71.4976238 101.9737997  43.6957640  73.5238465  87.5400659
  43.9911081  72.6149144  87.4867713  42.7945675  73.5026205  87.2181662
  55.6043718  85.2445729  94.3451068  55.4794858  84.4435469  93.8362013
  56.2622809  85.7391923  93.8565038  47.2251887  71.5994462  93.5228208
  46.5038472  72.2130430  93.3835681  48.0145142  72.1352227  93.4444854
  57.6678627  83.0454749  95.9730618  56.7208962  82.9260101  95.9008945
  58.0161400  82.1577248  96.0556879  50.0278200  68.9348888  99.7968860
  50.5512602  69.1811185 100.5595169  49.8090533  69.7668923  99.3771997
  45.4245481  71.2052563  87.6639985  45.0958187  70.3249942  87.4815090
  45.7784852  71.1500232  88.5516374  54.6725060  82.8407466  92.1734970
  54.5250022  81.9124173  92.3542540  55.4978553  82.8627556  91.6892045
  48.5387304  71.4925533  88.0315462  48.8783377  72.0211454  87.3094071
  48.9859425  71.8305939  88.8074029  58.2759182  83.6636024  93.2599843
  59.2005729  83.4578886  93.1224294  58.1074485  83.4152426  94.1689184
  51.2330745  69.8762584  97.4818530  50.8927565  69.0770397  97.8839210
  50.5269751  70.1764294  96.9095363  51.8847217  66.9611896  95.9345853
  52.7073286  66.4872374  95.8124744  52.1285280  67.7402380  96.4344540
  50.5255451  69.9900154  86.2308755  51.2463814  70.3681407  85.7272472
  49.9020756  70.7089031  86.3343733  54.6686574  70.6945303  87.1667087
  54.8850189  71.5769941  86.8655915  54.1880641  70.3031517  86.4372729
  49.4085796  73.6531017  93.7437832  49.2630376  73.9671320  94.6362113
  48.9310999  74.2715917  93.1908731  51.2682179  70.6433565  93.7918721
  51.2543747  69.7474658  93.4551019  51.9854607  70.6504228  94.4257008
  53.1208309  71.0770905  95.8371849  52.8626087  71.9987975  95.8356179
  52.5893350  70.6801339  96.5272313  58.0654498  84.1821692  88.6161934
  58.2391376  83.6168114  87.8635787  58.5583389  84.9822587  88.4341424
  43.8831458  76.1936361  96.6825493  43.3384926  76.9696169  96.8145767
  44.7610808  76.5407165  96.5244615  50.6719074  69.5247945  89.0606292
  50.7934986  68.5964591  89.2597179  50.3821117  69.5386631  88.1484607
  53.5410265  67.2102855  92.1973011  53.5631962  67.2742188  91.2424991
  53.9578324  66.3707364  92.3913518  63.9193889  76.9458115  90.2352234
  64.3625035  76.1965440  89.8371357  63.0420399  76.9368251  89.8525966
  59.0529671  83.4988456  85.7158833  59.7480575  84.1195149  85.9346147
  59.3952821  82.6483808  85.9911210  44.6697480  75.3206257  99.5755650
  43.9279216  75.4688893 100.1620280  44.3490224  75.5814523  98.7122399
  60.9521094  80.9488162  87.2446163  61.4772418  81.2875435  86.5195483
  60.8643446  80.0135177  87.0609298  52.6361754  87.0160145  91.6041417
  52.1966745  86.5236524  92.2974273  53.3869871  86.4733113  91.3633492
  45.1154093  83.2071686  91.6066045  45.9412113  82.9075458  91.2264688
  44.7648145  82.4379308  92.0555833  50.0835627  82.5598154  93.6763718
  49.4615636  81.8968859  93.3765946  50.7540493  82.5859286  92.9937366
  43.3162698  81.1258012  92.5654978  42.4794607  80.6980187  92.3838979
  43.2886344  81.3190456  93.5025769  50.1560154  71.0379942 103.2696224
  50.2048310  71.9142065 102.8873994  50.6982668  70.4957335 102.6967867
  49.6449133  81.1102078  87.1522179  49.7937254  81.7937542  86.4988851
  50.4515577  81.0907168  87.6671634  58.0516637  74.4144460 101.1789397
  58.9526500  74.2750925 100.8873394  58.1264612  74.5798915 102.1187574
  52.3859442  71.7911315 100.0242583  51.5162752  72.0844881  99.7525171
  52.6218923  72.3751760 100.7449846  63.4626754  78.4163353  92.6274682
  64.2973645  78.8553157  92.7912242  63.5985883  77.9402006  91.8082927
  60.5118260  75.9743088  98.5752169  60.9872381  76.1670734  97.7671021
  59.5883825  76.0302274  98.3295553  47.4001766  77.1367255  88.1583248
  47.1547808  76.2329585  88.3563458  47.5697681  77.1384406  87.2162726
  55.0898476  68.0090932  97.5408003  55.6080420  68.7451958  97.2154492
  54.7353609  68.3154925  98.3754762  46.6697414  72.8695613  85.6569409
  45.9766659  72.9439968  85.0009445  46.4249166  72.1055956  86.1790926
  55.3411070  64.4291214  93.0608900  55.6212824  63.7614403  93.6869326
  56.1261677  64.6220310  92.5483564  53.1444539  83.6050208  84.6233926
  52.5718506  84.2240395  84.1704398  53.7177333  84.1549570  85.1573848
  59.2119929  72.8508848  96.8080475  60.1637352  72.9506946  96.8292699
  59.0423379  72.0587117  97.3178559  57.2334308  69.9364431  96.9939876
  56.6384240  70.2169444  96.2986364  56.9484005  70.4258332  97.7656617
  56.3641799  83.8887358  85.7542508  57.2972472  83.8232920  85.9575384
  56.2765012  84.7243625  85.2957041  58.9929815  83.2053228  82.7146456
  58.9143447  82.8713092  83.6082214  59.8139482  83.6974996  82.7137928
  61.6908007  76.0714968  95.9222775  61.6584327  75.1330968  96.1082458
  62.3008630  76.1499004  95.1888599  53.5291337  74.9411021  81.9649979
  54.4750442  74.8117229  82.0338397  53.1505582  74.2025683  82.4419407
  61.8402495  72.8626011  95.9681058  61.3241544  72.0784468  95.7810987
  62.7242444  72.5344728  96.1327577  59.5013222  66.6067027  91.9276870
  59.3038043  66.2982115  92.8120202  60.1112928  67.3328666  92.0574800
  67.5084556  77.1330975  95.0628811  68.2387945  76.8716263  95.6236515
  66.8991502  76.3959697  95.1030879  65.5899854  75.2738837  95.6603263
  64.8633017  75.1394802  95.0519754  65.1747140  75.5815666  96.4659981
  51.7134255  72.8660997  81.9004864  50.8065710  72.5694110  81.9767577
  51.9910236  72.5690815  81.0339150  42.6312195  74.1867361  92.3503910
  42.3114979  73.3332669  92.0578284  42.0845623  74.4015939  93.1061878
  46.4092103  76.9029802  96.0673417  46.6278112  77.8346909  96.0861451
  46.8217876  76.5437776  96.8528221  53.3296320  67.4097887  88.0549105
  52.5197049  67.0644972  88.4304351  54.0180737  67.1005431  88.6436717
  55.2586869  66.4875934  89.6773402  55.8117907  66.9071387  90.3363425
  55.4956955  65.5611682  89.7196358  51.2819968  72.4763007 105.4576166
  51.1816695  73.4257364 105.3888257  51.0641510  72.1481246 104.5852236
  50.4833039  69.7247932  82.0416843  51.3452203  70.0502831  82.3012660
  50.6683383  68.9379428  81.5289909  42.5000455  77.8070272  94.3197032
  41.8063926  77.3924225  93.8066986  43.2473446  77.8490809  93.7230451
  58.6365676  68.5976459  89.1852066  58.0564345  69.2561263  88.8030118
  58.3701608  67.7753803  88.7739484  57.0869242  67.9981517  91.3873386
  57.5869020  68.1098051  90.5787705  57.7304850  67.6942569  92.0274195
  51.1451238  75.9060146 104.2741227  50.6618320  76.7060506 104.4805116
  51.2312177  75.9168091 103.3208671  44.4137198  77.7388526  92.1963047
  44.3907886  77.8376213  91.2444930  44.7237834  78.5853677  92.5180213
  47.0724575  79.7964681  96.3109661  48.0267829  79.7648623  96.2439593
  46.8737099  79.3355305  97.1259887  47.6623958  78.3665797  98.8780459
  48.4816847  78.8609876  98.9015296  47.9360765  77.4497765  98.8498026
  57.4190554  70.7576549  88.2408414  56.5316409  71.0426200  88.0228609
  57.8344543  70.5970313  87.3935691  60.7705090  70.7823070  91.9562754
  61.5465480  71.2719523  92.2287370  60.0453224  71.2081124  92.4134623
  63.2077649  71.4950689  93.0136694  63.8022139  71.2546425  92.3030002
  63.2804232  70.7757820  93.6410230  45.4274804  85.3384300  93.3279859
  45.2929272  84.5784701  92.7617857  45.0106866  86.0625200  92.8608648
  56.5633767  80.5221224  82.3356434  57.2669617  80.7271226  82.9514090
  55.8396416  81.0897986  82.6005518  57.3931577  76.2731085  88.4558704
  57.3366779  76.7299637  87.6166337  57.9459920  75.5121770  88.2781547
  61.2036383  72.0620817  89.2808824  60.9473318  71.6617453  90.1117032
  60.5789251  72.7764611  89.1558963  65.5148721  74.8016890  91.7880115
  64.9548279  74.8710080  92.5611677  64.9092225  74.6257875  91.0679612
  48.5843930  86.2353617  93.5398302  48.4676314  87.1799050  93.4376992
  47.7636376  85.9327179  93.9284101  58.4720465  80.9603753  84.3854894
  59.3066069  80.5284952  84.2032369  58.3104808  80.7885767  85.3131789
  58.1266357  77.4635866  85.7511234  58.0715161  77.2980138  84.8099678
  57.5012412  78.1711899  85.9073423  42.9158872  72.7003931  99.5772656
  43.5617735  72.1902885 100.0659881  42.7076023  73.4372612 100.1516081
  51.4362482  66.9643975  85.3296552  51.4241152  67.9085815  85.4864823
  52.3285904  66.7814121  85.0356013  49.6098444  86.8881879  96.7554230
  50.5125691  86.9205489  97.0720725  49.3835814  85.9582330  96.7700566
  51.3652046  85.6412866  93.4164309  50.4147677  85.6414727  93.3028681
  51.6684532  84.8945600  92.9000343  55.2514602  63.5586752  89.5842489
  54.4846998  63.0045239  89.7299171  55.6625307  63.6308621  90.4456640
  47.2556363  69.8471548 103.6747670  48.1187824  69.4908353 103.8850995
  46.6821773  69.5085443 104.3623074  59.7681262  93.2836309  90.4068487
  59.2046127  93.1926246  89.6384775  59.6533657  92.4636213  90.8870979
  65.3480820  96.9507276  85.7182952  64.6968800  97.5361357  85.3316965
  66.1425183  97.4813471  85.7777989  59.2736448  94.0396414  86.1170086
  60.0467324  93.4925401  85.9782962  59.6261846  94.9040663  86.3284547
  61.6102725  90.1989080  83.7488536  61.8628246  89.6770601  82.9871999
  60.6727284  90.0355225  83.8515220  66.8256086  94.6397708  86.2551936
  66.1901919  94.7132335  86.9672841  66.4953492  95.2291307  85.5771015
  61.3299014  92.1017186  85.9512911  61.2135272  91.4262089  86.6193995
  61.4401274  91.6149560  85.1345064  63.6730555  91.5627333  89.6559600
  63.3088762  91.0357954  90.3672522  64.5297671  91.1725802  89.4826086
  63.3136042  86.5917232  84.6520949  63.4810444  87.4597469  85.0191420
  63.1233211  86.7544514  83.7282238  63.2925263  89.0474890  85.6367615
  63.1724888  89.4931941  86.4753096  62.5977851  89.3960208  85.0781154
  56.8832668  91.1481282  93.1867273  57.0125049  91.4015761  94.1006684
  56.2030119  91.7408990  92.8671928  68.9910329  89.5196363  86.4647950
  69.9028185  89.7523750  86.2895647  68.4819976  90.1033407  85.9023028
  62.0876759  90.3619742  87.9301181  62.7900803  90.8140786  88.3975108
  61.7557388  89.7203561  88.5581074  55.8302093  88.6203295  93.2318315
  55.0401147  88.8760823  92.7558425  56.3213341  89.4351633  93.3370355
  57.7816839  88.9847874  90.1901791  56.9848002  89.0966568  90.7085287
  57.5542431  89.3234526  89.3242682  54.1139796  88.8733785  95.6633306
  54.3647835  89.7580795  95.9290882  54.6499345  88.6938387  94.8908397
  56.7799921  94.6936123  88.5791212  57.2924442  95.4879373  88.7296776
  57.4322634  93.9962413  88.5124813  54.7448838  93.0224777  89.3550782
  55.5824060  93.4321785  89.1384490  54.9227106  92.0824219  89.3250976
  66.6413270  90.6899858  85.0434615  66.1259894  91.4604462  85.2823002
  66.3690579  90.0164994  85.6667676  64.2260381  85.5349558  90.1019853
  63.3701978  85.1456409  89.9225492  64.6387333  85.6141519  89.2419639
  65.7559528  83.0695902  94.5011413  65.2524323  83.0326037  93.6879218
  66.0490135  83.9788644  94.5608070  62.0002414  83.1534631  93.5077595
  62.8655411  82.9577440  93.1483484  62.0679923  82.9244983  94.4346952
  71.6147544  93.4432212  86.9787788  70.8376987  93.1043372  86.5342951
  72.2939025  93.4484835  86.3042754  66.4299573  88.5626950  86.8694396
  66.1249709  88.8773099  87.7204539  67.3830016  88.6408370  86.9121729
  64.8746005  94.7217173  88.5187350  64.3467367  93.9869933  88.2060588
  64.3733508  95.4991849  88.2727318  59.6064733  85.3836839  90.8793962
  60.1808485  85.1612021  90.1467155  60.1935715  85.4525534  91.6322563
  59.9334320  87.4141300  84.8989847  59.0971632  87.7515987  85.2199122
  59.7939090  87.2790280  83.9616984  61.9087401  82.2578088  89.6069031
  61.2551813  81.9427105  88.9825646  61.8667875  81.6353829  90.3328854
  63.0198605  92.5397383  81.5222323  62.1125667  92.3086637  81.7213472
  63.5169637  91.7435003  81.7096305  65.9266684 101.2494890  84.4419009
  65.2528383 101.5526587  85.0503967  66.3132506 102.0523971  84.0924466
  65.9260189  90.1451437  89.0619359  66.6732008  90.6572835  88.7526481
  66.1951778  89.8235490  89.9223753  64.1986839  92.6409978  86.0446313
  63.2898058  92.3569011  86.1418783  64.2281923  93.0609057  85.1849620
  68.3739026  87.1808554  91.0438148  67.6361783  86.6685940  91.3748391
  68.6265799  86.7408935  90.2321425  68.4750653  79.9584806  91.6379918
  68.7809530  79.0982169  91.3505833  69.2003258  80.5502426  91.4378911
  54.7675009  90.3615492  90.0261515  54.5699409  89.7684853  89.3012582
  54.2121673  90.0567702  90.7437454  62.7471733  90.2538599  92.1456109
  62.8020343  89.3012435  92.0698585  61.9362935  90.4098038  92.6297407
  63.8962927  94.1818722  83.3834392  63.4582357  93.4654581  82.9240029
  64.6373368  94.4094837  82.8219483  60.6864093  88.8715658  89.9046488
  59.8731958  89.1709829  90.3111680  61.1823087  88.4771347  90.6220970
  60.1778168  86.4434014  95.5207722  60.8177547  86.3022773  94.8230686
  59.3455698  86.1568527  95.1446324  57.2621235  89.8879526  87.7102468
  56.3318823  89.8263982  87.9272430  57.3578707  89.3655479  86.9139109
  57.1806784  86.4134339  90.2980709  57.4413601  87.3279672  90.1889870
  58.0023956  85.9458782  90.4477322  68.0174154  93.0403103  82.9766449
  67.4003325  92.3149932  82.8799502  67.5490643  93.8012464  82.6333524
  59.8072700  87.2588528  82.0987754  58.9302166  87.1377329  81.7350000
  60.2830453  86.4674606  81.8466642  51.3274840  92.0465687  92.1929261
  52.0145880  91.7327418  91.6050276  51.1722969  92.9507052  91.9196512
  56.1309562  86.9355884  96.6214285  56.0467751  86.3281554  95.8864695
  55.3092269  87.4264902  96.6223781  66.3033276  85.4209448  91.9884480
  66.8001976  84.6679410  91.6685550  65.5320258  85.4573764  91.4227689
  62.8868245  87.5626831  91.7156164  62.5166033  87.0097871  92.4037070
  63.3827338  86.9584964  91.1631164  50.9042816  90.1266281  94.4646728
  50.9426916  89.5929872  95.2583846  50.3983109  89.6001486  93.8457705
  54.5351394  88.8530383  87.5400659  54.8304835  87.9441061  87.4867713
  53.6339430  88.8318122  87.2181662  58.0645641  86.9286380  93.5228208
  57.3432227  87.5422347  93.3835681  58.8538897  87.4644144  93.4444854
  56.2639236  86.5344481  87.6639985  55.9351942  85.6541860  87.4815090
  56.6178606  86.4792149  88.5516374  59.3781059  86.8217450  88.0315462
  59.7177131  87.3503372  87.3094071  59.8253179  87.1597857  88.8074029
  62.7240971  82.2903814  95.9345853  63.5467041  81.8164292  95.8124744
  62.9679035  83.0694297  96.4344540  61.3649206  85.3192072  86.2308755
  62.0857568  85.6973325  85.7272472  60.7414510  86.0380949  86.3343733
  65.5080329  86.0237221  87.1667087  65.7243943  86.9061859  86.8655915
  65.0274396  85.6323434  86.4372729  62.1075933  85.9725482  93.7918721
  62.0937502  85.0766576  93.4551019  62.8248361  85.9796146  94.4257008
  61.5112829  84.8539863  89.0606292  61.6328740  83.9256509  89.2597179
  61.2214871  84.8678548  88.1484607  64.3804019  82.5394773  92.1973011
  64.4025716  82.6034106  91.2424991  64.7972078  81.6999282  92.3913518
  60.4842888  96.4393995  87.1522179  60.6331008  97.1229460  86.4988851
  61.2909331  96.4199085  87.6671634  58.2395521  92.4659173  88.1583248
  57.9941563  91.5621503  88.3563458  58.4091435  92.4676323  87.2162726
  57.5091168  88.1987530  85.6569409  56.8160413  88.2731885  85.0009445
  57.2642920  87.4347874  86.1790926  66.1804825  79.7583132  93.0608900
  66.4606579  79.0906321  93.6869326  66.9655432  79.9512227  92.5483564
  63.9838293  98.9342126  84.6233926  63.4112261  99.5532313  84.1704398
  64.5571087  99.4841487  85.1573848  69.8323570  98.5345146  82.7146456
  69.7537201  98.2005010  83.6082214  70.6533237  99.0266914  82.7137928
  64.3685092  90.2702938  81.9649979  65.3144197  90.1409147  82.0338397
  63.9899337  89.5317600  82.4419407  70.3406977  81.9358944  91.9276870
  70.1431798  81.6274033  92.8120202  70.9506682  82.6620583  92.0574800
  62.5528009  88.1952915  81.9004864  61.6459465  87.8986028  81.9767577
  62.8303990  87.8982733  81.0339150  53.4705949  89.5159278  92.3503910
  53.1508734  88.6624586  92.0578284  52.9239378  89.7307856  93.1061878
  64.1690075  82.7389805  88.0549105  63.3590803  82.3936889  88.4304351
  64.8574492  82.4297348  88.6436717  66.0980623  81.8167851  89.6773402
  66.6511662  82.2363305  90.3363425  66.3350709  80.8903599  89.7196358
  61.3226794  85.0539850  82.0416843  62.1845958  85.3794748  82.3012660
  61.5077138  84.2671346  81.5289909  53.3394210  93.1362190  94.3197032
  52.6457681  92.7216142  93.8066986  54.0867201  93.1782726  93.7230451
  69.4759430  83.9268376  89.1852066  68.8958099  84.5853180  88.8030118
  69.2095363  83.1045721  88.7739484  67.9262997  83.3273434  91.3873386
  68.4262775  83.4389969  90.5787705  68.5698605  83.0234487  92.0274195
  55.2530952  93.0680443  92.1963047  55.2301640  93.1668131  91.2444930
  55.5631589  93.9145594  92.5180213  68.2584308  86.0868467  88.2408414
  67.3710163  86.3718117  88.0228609  68.6738297  85.9262230  87.3935691
  67.4027522  95.8513142  82.3356434  68.1063372  96.0563144  82.9514090
  66.6790170  96.4189903  82.6005518  68.2325332  91.6023003  88.4558704
  68.1760533  92.0591554  87.6166337  68.7853674  90.8413687  88.2781547
  72.0430138  87.3912735  89.2808824  71.7867072  86.9909370  90.1117032
  71.4183006  88.1056529  89.1558963  69.3114219  96.2895671  84.3854894
  70.1459823  95.8576869  84.2032369  69.1498562  96.1177684  85.3131789
  68.9660111  92.7927784  85.7511234  68.9108915  92.6272055  84.8099678
  68.3406167  93.5003817  85.9073423  62.2756237  82.2935893  85.3296552
  62.2634907  83.2377733  85.4864823  63.1679659  82.1106038  85.0356013
  66.0908356  78.8878670  89.5842489  65.3240752  78.3337156  89.7299171
  66.5019061  78.9600538  90.4456640  70.6466455 102.5880445  82.0987754
  69.7695921 102.4669246  81.7350000  71.1224208 101.7966524  81.8466642
  72.1620548 100.3831768  82.0416843  73.0239712 100.7086666  82.3012660
  72.3470892  99.5963264  81.5289909  21.9905804  12.6401728  72.4428258
  21.3393783  13.2255809  72.0562272  22.7850167  13.1707923  72.5023296
  15.9161431   9.7290865  72.8415393  16.6892307   9.1819853  72.7028268
  16.2686830  10.5935115  73.0529854  18.2527709   5.8883532  70.4733843
  18.5053229   5.3665053  69.7117306  17.3152268   5.7249677  70.5760526
  23.4681069  10.3292160  72.9797243  22.8326902  10.4026787  73.6918147
  23.1378475  10.9185759  72.3016322  17.9723997   7.7911637  72.6758218
  17.8560256   7.1156541  73.3439302  18.0826257   7.3044011  71.8590371
  20.3155538   7.2521785  76.3804907  19.9513746   6.7252406  77.0917828
  21.1722654   6.8620254  76.2071392  19.9561025   2.2811684  71.3766255
  20.1235428   3.1491921  71.7436726  19.7658194   2.4438966  70.4527545
  19.9350246   4.7369342  72.3612922  19.8149871   5.1826393  73.1998402
  19.2402835   5.0854659  71.8026460  17.6957138  17.5072984  76.0103053
  17.6181168  18.4580809  76.0891534  17.0918782  17.1618856  76.6677980
  25.6335312   5.2090815  73.1893256  26.5453168   5.4418202  73.0140954
  25.1244959   5.7927859  72.6268335  28.1194127  11.1271071  77.9351201
  27.4345165  11.5069973  77.3848235  28.2037976  11.7366398  78.6683149
  19.7932857   9.9291042  77.8456923  20.2571202  10.2078744  77.0561545
  19.5289655   9.0274486  77.6630013  18.7301743   6.0514194  74.6546488
  19.4325786   6.5035238  75.1220414  18.3982371   5.4098013  75.2826381
  34.5796879   7.9941734  79.0553874  33.8260588   7.4249132  78.8997878
  34.7144420   7.9604399  80.0024508  19.9695507  12.8655137  74.7308593
  19.8341182  13.7106672  75.1593441  20.5105320  13.0674414  73.9674527
  13.4224905  10.3830575  75.3036518  13.9349425  11.1773825  75.4542083
  14.0747617   9.6856865  75.2370120  15.2319789  13.4996331  77.3859271
  15.4086418  14.4214296  77.1980255  16.0276623  13.1854750  77.8153651
  23.2838254   6.3794309  71.7679922  22.7684877   7.1498914  72.0068309
  23.0115562   5.7059446  72.3912983  28.2572528   9.1326664  73.7033095
  27.4801970   8.7937824  73.2588257  28.9364009   9.1379287  73.0288060
  23.0724557   4.2521402  73.5939703  22.7674692   4.5667551  74.4449846
  24.0254999   4.3302821  73.6367036  21.5170989  10.4111625  75.2432657
  20.9892350   9.6764384  74.9305894  21.0158491  11.1886301  74.9972625
  26.4963835   8.6060645  80.3599703  25.8387509   9.2959907  80.4479832
  27.3004234   8.9957077  80.7033689  25.3069293   6.9605018  78.4103645
  25.8201175   7.5935010  78.9125355  25.9570517   6.3606214  78.0447005
  19.6623589   8.2291835  68.2467630  18.7550650   7.9981089  68.4458779
  20.1594621   7.4329454  68.4341611  22.5691668  16.9389342  71.1664316
  21.8953366  17.2421039  71.7749274  22.9557490  17.7418423  70.8169773
  20.8411822   8.3304430  72.7691620  19.9323041   8.0463463  72.8664090
  20.8706906   8.7503509  71.9094927  26.0731090  11.9411020  76.5382787
  25.6193417  11.1001929  76.5947978  25.4425056  12.5772418  76.8757568
  24.5164029  13.7787516  77.4732606  24.8087003  14.3392573  76.7544971
  25.0262649  14.0716077  78.2285765  20.5387910   9.8713174  70.1079699
  20.1007340   9.1549033  69.6485336  21.2798351  10.0989289  69.5464790
  19.4797654  14.5567867  78.5626059  19.4373833  14.7828714  77.6334591
  20.3960353  14.3231242  78.7111860  28.6561025   8.1470371  76.1656017
  28.5178923   8.3371967  75.2377206  28.2997244   8.9089754  76.6224068
  28.6830404  10.2146898  81.1767289  29.1166911  10.1222187  82.0250343
  29.3961985  10.1904398  80.5387305  17.5963455  11.4330896  78.3588022
  18.3904053  10.9381216  78.1570597  16.8855147  10.9048759  77.9955727
  20.7682883  17.1069015  73.3811395  20.9434638  16.6357058  74.1957018
  20.0815671  17.7334781  73.6092656  21.7239946  11.3841521  79.4274696
  21.3889779  11.3442291  80.3232346  21.2243892  10.7186237  78.9545107
  24.6599138   8.7297555  69.7011756  24.0428308   8.0044384  69.6044809
  24.1915626   9.4906916  69.3578830  15.3343968  20.2558378  80.1551255
  15.5740566  20.8876902  80.8330274  14.4913164  19.9046418  80.4416615
  19.8471830  16.0637500  82.5592759  19.7742001  16.8692471  83.0712064
  19.4049223  16.2629466  81.7340781  19.6361610  15.3009270  76.0695581
  18.8529131  15.8430950  76.1633805  20.3354355  15.8183250  76.4689822
  30.7988017   6.8144265  80.3548078  30.7877893   7.6968980  79.9842011
  29.9305396   6.4615816  80.1602615  24.0288040   9.8675587  76.2868210
  23.0944319   9.9877049  76.1172914  24.2064709   8.9648053  76.0228219
  27.4160592   5.7092906  76.8218244  27.8821044   6.5420898  76.7478546
  27.8668092   5.2437888  77.5263502  25.4836823  12.0536727  73.8204396
  25.7596667  11.9393322  74.7298270  24.6141322  11.6554212  73.7816569
  22.1190887  16.3023078  77.4637209  22.3013281  15.4844734  77.9264962
  22.9423873  16.5190770  77.0262099  22.4533052  15.2291263  74.7252258
  22.9820819  14.7183718  74.1122420  22.7161272  14.9133793  75.5897791
  15.8088800  16.2806380  77.4850034  15.1399175  16.7652508  77.0014074
  15.6701670  16.5275600  78.3993412  23.0862456  16.2632099  81.0696374
  22.9613596  15.4621839  80.5607320  23.7441547  16.7578292  80.5810344
  25.1497364  14.0641119  82.6975924  24.2027700  13.9446470  82.6254251
  25.4980138  13.1763617  82.7802186  22.1543798  13.8593835  78.8980277
  22.0068760  12.9310543  79.0787847  22.9797291  13.8813926  78.4137352
  25.7577920  14.6822394  79.9845149  26.6824467  14.4765255  79.8469601
  25.5893223  14.4338795  80.8934491  22.1505312   1.7131673  73.8912394
  22.3668926   2.5956311  73.5901222  21.6699379   1.3217886  73.1618036
  25.5473236  15.2008061  75.3407241  25.7210113  14.6354484  74.5881093
  26.0402127  16.0008956  75.1586731  31.4012627   7.9644484  76.9597541
  31.8443773   7.2151810  76.5616664  30.5239137   7.9554621  76.5771273
  26.5348408  14.5174826  72.4404139  27.2299313  15.1381519  72.6591454
  26.8771558  13.6670177  72.7156517  28.4339831  11.9674531  73.9691470
  28.9591156  12.3061804  73.2440790  28.3462184  11.0321547  73.7854605
  20.1180492  18.0346515  78.3286723  19.6785482  17.5422893  79.0219580
  20.8688609  17.4919482  78.0878798  17.1267871  12.1288447  73.8767485
  17.2755992  12.8123911  73.2234158  17.9334315  12.1093537  74.3916941
  30.9445492   9.4349723  79.3519988  31.7792383   9.8739527  79.5157549
  31.0804620   8.9588376  78.5328234  14.8820504   8.1553625  74.8828554
  14.6366546   7.2515955  75.0808764  15.0516419   8.1570775  73.9408032
  20.6263277  14.6236578  71.3479233  20.0537244  15.2426765  70.8949705
  21.1996070  15.1735939  71.8819155  23.8460537  14.9073728  72.4787815
  24.7791210  14.8419289  72.6820691  23.7583749  15.7429995  72.0202348
  26.4748553  14.2239598  69.4391763  26.3962185  13.8899462  70.3327521
  27.2958220  14.7161366  69.4383235  21.0110075   5.9597390  68.6895285
  21.9569180   5.8303598  68.7583703  20.6324320   5.2212052  69.1664713
  34.9903294   8.1517344  81.7874118  35.7206683   7.8902632  82.3481821
  34.3810240   7.4146066  81.8276186  19.1952992   3.8847367  68.6250171
  18.2884448   3.5880479  68.7012884  19.4728973   3.5877185  67.7584457
  24.9009292   1.7762919  74.9653721  24.0135147   2.0612569  74.7473916
  25.3163281   1.6156682  74.1180998  12.9093542  16.3570670  80.0525166
  12.7748010  15.5971071  79.4863164  12.4925604  17.0811570  79.5853955
  24.0452505  11.5407593  69.0601741  24.7488355  11.7457596  69.6759397
  23.3215154  12.1084355  69.3250824  24.8750315   7.2917455  75.1804011
  24.8185517   7.7486006  74.3411644  25.4278658   6.5308139  75.0026854
  28.6855121   3.0807187  76.0054131  28.4292055   2.6803822  76.8362338
  28.0607989   3.7950980  75.8804270  32.9967459   5.8203260  78.5125422
  32.4367017   5.8896449  79.2856984  32.3910962   5.6444244  77.7924918
  16.0662668  17.2539987  80.2643608  15.9495052  18.1985419  80.1622299
  15.2455114  16.9513548  80.6529408  25.9539202  11.9790123  71.1100201
  26.7884806  11.5471321  70.9277676  25.7923545  11.8072136  72.0377095
  25.6085095   8.4822236  72.4756540  25.5533898   8.3166507  71.5344984
  24.9831150   9.1898269  72.6318730  18.8470784  16.6599235  80.1409615
  17.8966415  16.6601097  80.0273988  19.1503270  15.9131970  79.6245650
  34.5823477  22.4959774  81.2055378  35.2201887  22.3766521  80.5018718
  34.4644320  23.4440618  81.2643330  31.3913184  22.4487202  81.1416902
  31.0531695  22.3328267  80.2537437  32.2602952  22.0478367  81.1217909
  27.2499999  24.3022678  77.1313793  26.6864865  24.2112615  76.3630081
  27.1352395  23.4822583  77.6116286  31.8732967  23.6022054  87.1003108
  31.8621608  23.2074852  86.2283612  32.0353606  22.8688126  87.6936879
  24.7964431  25.7973870  79.9698014  25.5885723  25.4564694  79.5544313
  25.0361082  25.9068845  80.8900167  32.8299558  27.9693646  72.4428258
  32.1787538  28.5547726  72.0562272  33.6243921  28.4999841  72.5023296
  26.7555185  25.0582783  72.8415393  27.5286061  24.5111770  72.7028268
  27.1080584  25.9227032  73.0529854  28.5940228  26.3859165  86.0482292
  28.3030094  27.2904796  85.9328958  29.2297212  26.4275693  86.7626362
  29.5196435  23.7636014  82.6383652  30.1160007  23.5392036  81.9240615
  29.5771406  23.0220759  83.2409099  29.0921463  21.2175449  70.4733843
  29.3446984  20.6956970  69.7117306  28.1546022  21.0541595  70.5760526
  34.1364746  20.2211228  78.2808586  34.9227835  19.8030651  77.9299003
  34.4003450  21.1257320  78.4490234  34.3074823  25.6584078  72.9797243
  33.6720656  25.7318704  73.6918147  33.9772230  26.2477677  72.3016322
  39.5373173  20.1586461  79.1841564  40.2698345  19.5885678  79.4179394
  38.7812529  19.7708061  79.6248070  28.8117752  23.1203555  72.6758218
  28.6954010  22.4448459  73.3439302  28.9220012  22.6335929  71.8590371
  31.1549293  22.5813702  76.3804907  30.7907500  22.0544323  77.0917828
  32.0116409  22.1912171  76.2071392  37.0598593  13.8708035  83.6436173
  36.7281918  14.7403446  83.4197388  36.4644207  13.5544319  84.3230203
  30.7954780  17.6103602  71.3766255  30.9629182  18.4783838  71.7436726
  30.6051949  17.7730884  70.4527545  33.5530113  26.0720581  83.0432086
  33.2530836  26.9745620  82.9347893  33.2081173  25.8052764  83.8953239
  27.0042594  22.5234378  79.0768790  26.0793091  22.3910592  79.2846482
  27.2527008  23.3028597  79.5738732  36.9527257  18.5903121  80.7229523
  36.0444134  18.5218529  80.4288284  36.9014853  19.0675066  81.5511348
  30.7744001  20.0661259  72.3612922  30.6543626  20.5118310  73.1998402
  30.0796589  20.4146577  71.8026460  24.3651406  22.1667651  79.9112579
  24.4943787  22.4202130  80.8251991  23.6848857  22.7595359  79.5917234
  28.5350893  32.8364901  76.0103053  28.4574922  33.7872726  76.0891534
  27.9312536  32.4910774  76.6677980  31.0268123  20.0092767  88.6664420
  30.2501457  20.5686687  88.6567285  31.6658686  20.4949550  89.1879290
  38.8188903  16.7919559  82.5007397  38.1763283  17.0852093  81.8547191
  38.3143832  16.6772480  83.3060594  36.4729067  20.5382733  73.1893256
  37.3846923  20.7710119  73.0140954  35.9638714  21.1219777  72.6268335
  29.2814495  22.8178220  88.2282387  30.0229179  23.3563264  87.9517211
  28.5751480  23.4444509  88.3853939  34.7569835  24.9607360  86.8254549
  35.1653191  24.5189771  86.0809181  34.0347096  24.3859988  87.0788742
  31.1100905  19.8979967  84.1988106  31.9562100  20.3219381  84.3422755
  31.0499542  19.2413592  84.8926669  35.0798649  25.5208551  80.5806838
  34.4507512  25.6854265  79.8782905  34.6924311  25.9350161  81.3517802
  38.9587881  26.4562989  77.9351201  38.2738919  26.8361890  77.3848235
  39.0431730  27.0658316  78.6683149  34.2600350  17.5584336  85.8569279
  34.0161282  18.3126396  85.3203555  34.5360280  17.9369683  86.6916526
  36.2138813  24.1022948  84.5346545  36.4255708  24.7454708  83.8580926
  36.1668561  23.2685265  84.0668475  33.8165042  16.7140769  81.4383117
  32.9549521  17.0122022  81.7299855  33.8427476  16.9311168  80.5064150
  30.6326611  25.2582959  77.8456923  31.0964957  25.5370662  77.0561545
  30.3683409  24.3566404  77.6630013  27.5250692  24.8054441  80.7836686
  28.0952049  25.2341709  80.1454170  28.1158804  24.5237025  81.4820872
  29.5695497  21.3806112  74.6546488  30.2719540  21.8327155  75.1220414
  29.2376126  20.7389930  75.2826381  23.3120831  19.6389664  79.9563621
  22.5219885  19.8947193  79.4803732  23.8032078  20.4538002  80.0615662
  37.3284641  26.9794903  82.7068902  38.1502084  26.5775091  82.4251584
  37.3247043  26.8763138  83.6585018  25.2635576  20.0034243  76.9147098
  24.4666740  20.1152938  77.4330594  25.0361169  20.3420896  76.0487989
  31.0941244  26.5278947  84.8629613  31.1585677  26.9899354  85.6987785
  30.3852168  25.8976312  84.9911923  21.5958534  19.8920155  82.3878612
  21.8466572  20.7767165  82.6536188  22.1318082  19.7124756  81.6153704
  45.4190634  23.3233652  79.0553874  44.6654342  22.7541050  78.8997878
  45.5538175  23.2896316  80.0024508  30.8089262  28.1947054  74.7308593
  30.6734936  29.0398590  75.1593441  31.3499074  28.3966332  73.9674527
  24.2618659  25.7122492  75.3036518  24.7743180  26.5065742  75.4542083
  24.9141372  25.0148783  75.2370120  26.0713544  28.8288248  77.3859271
  26.2480172  29.7506213  77.1980255  26.8670377  28.5146668  77.8153651
  32.4357738  28.8170621  88.8608935  31.9921592  28.0306999  88.5429840
  33.0974952  29.0049771  88.1952826  27.1944859  30.3466422  83.3869614
  27.7452284  30.2183486  82.6146608  26.3556335  30.6461311  83.0364506
  34.5338976  29.0973421  86.8890336  34.5157452  29.9182302  86.3970606
  35.4558896  28.9727496  87.1140478  30.9912030  26.6117550  87.7313845
  31.5240367  25.8505838  87.5013153  30.4626111  26.3191202  88.4737999
  34.1581725  11.7177616  83.2607487  33.8145995  12.6079258  83.1846597
  34.5260688  11.5279274  82.3977072  22.2267576  24.0411147  76.0796089
  23.0642798  24.4508155  75.8629796  22.4045844  23.1010589  76.0496283
  34.1232008  21.7086227  71.7679922  33.6078631  22.4790832  72.0068309
  33.8509316  21.0351363  72.3912983  31.7079119  16.5535928  76.8265160
  30.8520715  16.1642778  76.6470799  32.1206071  16.6327889  75.9664946
  33.2378266  14.0882271  81.2256720  32.7343061  14.0512406  80.4124525
  33.5308873  14.9975014  81.2853376  29.4821152  14.1721001  80.2322902
  30.3474148  13.9763810  79.8728791  29.5498660  13.9431353  81.1592258
  39.0966282  24.4618582  73.7033095  38.3195725  24.1229741  73.2588257
  39.7757763  24.4671205  73.0288060  33.9118311  19.5813319  73.5939703
  33.6068447  19.8959468  74.4449846  34.8648753  19.6594739  73.6367036
  32.3564743  25.7403543  75.2432657  31.8286105  25.0056302  74.9305894
  31.8552246  26.5178219  74.9972625  37.3357589  23.9352563  80.3599703
  36.6781263  24.6251824  80.4479832  38.1397988  24.3248995  80.7033689
  27.0883471  16.4023209  77.6039268  27.6627223  16.1798390  76.8712461
  27.6754453  16.4711903  78.3567870  36.1463048  22.2896936  78.4103645
  36.6594930  22.9226928  78.9125355  36.7964272  21.6898131  78.0447005
  27.4153058  18.4327670  71.6235154  26.5790370  18.7702356  71.9444428
  27.2757827  18.2976650  70.6862291  29.3906138  13.2764458  76.3314338
  28.7370551  12.9613475  75.7070953  29.3486612  12.6540198  77.0574161
  30.5017343  23.5583753  68.2467630  29.5944405  23.3273006  68.4458779
  30.9988375  22.7621372  68.4341611  33.4085422  32.2681260  71.1664316
  32.7347121  32.5712957  71.7749274  33.7951244  33.0710340  70.8169773
  32.6243879  19.7646391  80.6561985  31.7066440  19.9861338  80.4983673
  33.0404022  19.8392702  79.7973693  33.4078926  21.1637807  75.7864666
  34.1550745  21.6759204  75.4771788  33.6770516  20.8421860  76.6469059
  31.6805577  23.6596348  72.7691620  30.7716796  23.3755381  72.8664090
  31.7100660  24.0795426  71.9094927  36.9124844  27.2702937  76.5382787
  36.4587171  26.4293847  76.5947978  36.2818811  27.9064336  76.8757568
  35.8557764  18.1994923  77.7683455  35.1180520  17.6872309  78.0993698
  36.1084537  17.7595305  76.9566732  35.3557783  29.1079434  77.4732606
  35.6480758  29.6684491  76.7544971  35.8656404  29.4007995  78.2285765
  35.9569391  10.9771175  78.3625224  36.2628268  10.1168539  78.0751139
  36.6821996  11.5688795  78.1624218  22.2493747  21.3801862  76.7506822
  22.0518147  20.7871223  76.0257889  21.6940411  21.0754072  77.4682761
  30.2290471  21.2724968  78.8701415  30.2839080  20.3198805  78.7943892
  29.4181673  21.4284407  79.3542714  31.3781664  25.2005091  70.1079699
  30.9401094  24.4840950  69.6485336  32.1192105  25.4281206  69.5464790
  28.1682831  19.8902028  76.6291794  27.3550696  20.1896199  77.0356986
  28.6641825  19.4957717  77.3466276  30.3191408  29.8859785  78.5626059
  30.2767587  30.1120631  77.6334591  31.2354107  29.6523160  78.7111860
  33.7657042  20.3543853  85.4606688  34.1206430  20.5815326  86.3201154
  34.4129174  20.6862229  84.8383943  39.4954779  23.4762288  76.1656017
  39.3572678  23.6663884  75.2377206  39.1390998  24.2381671  76.6224068
  27.6596905  17.4620384  82.2453029  28.2996285  17.3209143  81.5475992
  26.8274436  17.1754897  81.8691631  39.5224159  25.5438815  81.1767289
  39.9560665  25.4514105  82.0250343  40.2355740  25.5196316  80.5387305
  28.4357209  26.7622814  78.3588022  29.2297808  26.2673134  78.1570597
  27.7248902  26.2340677  77.9955727  33.2552054  29.1440910  82.7100389
  33.3089076  29.7131846  83.4778105  32.3866835  29.3142795  82.3454426
  24.7439973  20.9065896  74.4347774  23.8137561  20.8450351  74.6517736
  24.8397445  20.3841848  73.6384415  24.6625522  17.4320709  77.0226016
  24.9232339  18.3466042  76.9135176  25.4842694  16.9645151  77.1722629
  26.1350447  18.8458466  84.1924840  26.8073501  18.6375828  83.5437489
  25.3080234  18.6480552  83.7530073  40.3839708  25.5862516  83.7100174
  40.5775598  26.4908327  83.9559449  40.2840327  25.1269935  84.5438759
  32.0376019  15.4720407  86.2090501  31.3903934  16.1710356  86.1154978
  32.8077035  15.9056551  86.5766750  35.4454817  25.7369259  89.2841055
  35.2940323  25.5079811  88.3671138  35.4359497  26.6939860  89.2972400
  32.2140153  23.3101172  84.2687321  33.1432213  23.4612331  84.0956288
  31.7931183  23.3985192  83.4135968  31.0128485  27.3351836  82.0385859
  30.8739571  26.9670620  82.9111797  30.2243081  27.8499475  81.8669816
  31.6076637  32.4360932  73.3811395  31.7828393  31.9648976  74.1957018
  30.9209425  33.0626699  73.6092656  32.5633700  26.7133439  79.4274696
  32.2283533  26.6734209  80.3232346  32.0637646  26.0478155  78.9545107
  26.5377944  22.1201069  84.9527278  26.3997742  21.3881308  85.5538817
  27.4482868  22.0309969  84.6711465  35.4992892  24.0589473  69.7011756
  34.8822063  23.3336301  69.6044809  35.0309381  24.8198833  69.3578830
  29.1660245  21.8321028  84.4410957  29.8759864  21.1914220  84.3997576
  29.1229553  22.0833923  85.3637138  37.1547024  28.7688381  87.3617536
  37.0959570  28.0847602  86.6948119  37.5566542  29.5107371  86.9098162
  27.8789179  18.8186246  86.2606597  27.3426536  18.3676984  86.9128193
  27.2905887  18.9532155  85.5177061  26.1737723  35.5850295  80.1551255
  26.4134321  36.2168819  80.8330274  25.3306919  35.2338335  80.4416615
  27.2891438  18.2774897  68.8233060  26.4120904  18.1563698  68.4595307
  27.7649191  17.4860976  68.5711949  37.1564431  26.7327965  85.5931516
  36.2691210  26.3953887  85.7157915  37.7262982  26.0010997  85.8300282
  18.8093578  23.0652057  78.9174568  19.4964618  22.7513787  78.3295583
  18.6541707  23.9693422  78.6441819  23.6128300  17.9542254  83.3459591
  23.5286489  17.3467923  82.6110001  22.7911007  18.4451272  83.3469088
  30.6865584  31.3929418  82.5592759  30.6135756  32.1984389  83.0712064
  30.2442977  31.5921383  81.7340781  30.4755364  30.6301188  76.0695581
  29.6922886  31.1722868  76.1633805  31.1748109  31.1475167  76.4689822
  33.7852014  16.4395817  78.7129786  34.2820714  15.6865779  78.3930857
  33.0138996  16.4760134  78.1472996  41.6381772  22.1436183  80.3548078
  41.6271648  23.0260898  79.9842011  40.7699151  21.7907734  80.1602615
  33.1464268  31.2916252  84.7150918  33.8592240  31.9263717  84.6426819
  32.6554297  31.3880118  83.8990920  34.8681795  25.1967504  76.2868210
  33.9338074  25.3168967  76.1172914  35.0458463  24.2939971  76.0228219
  30.3686983  18.5813200  78.4401471  29.9984770  18.0284241  79.1282376
  30.8646075  17.9771334  77.8876471  38.2554346  21.0384824  76.8218244
  38.7214798  21.8712815  76.7478546  38.7061847  20.5729805  77.5263502
  28.1976181  29.0410695  85.5356489  28.8985641  29.6747178  85.6885883
  27.7271296  29.3825427  84.7752128  36.3230577  27.3828645  73.8204396
  36.5990421  27.2685240  74.7298270  35.4535076  26.9846130  73.7816569
  36.2271009  13.4065411  80.8609145  35.3134089  13.6369637  81.0291352
  36.6564110  13.4903855  81.7123178  35.9977467  21.5955303  83.3609039
  35.3448918  21.8431210  82.7061492  36.3757847  20.7819441  83.0271516
  32.9584641  31.6314996  77.4637209  33.1407036  30.8136652  77.9264962
  33.7817627  31.8482688  77.0262099  33.2926807  30.5583181  74.7252258
  33.8214573  30.0475636  74.1122420  33.5555026  30.2425711  75.5897791
  32.0465040  22.3375114  89.8475076  31.3705677  22.2369243  90.5177451
  32.8692674  22.1814327  90.3111073  23.7943899  28.5747050  82.4687591
  24.3797336  27.8290738  82.6015496  23.5968738  28.8851007  83.3524255
  26.6482555  31.6098298  77.4850034  25.9792930  32.0944425  77.0014074
  26.5095424  31.8567518  78.3993412  18.3861554  21.1452650  81.1892035
  18.4245654  20.6116241  81.9829153  17.8801847  20.6187856  80.5703012
  30.7887823  33.6442041  84.0832692  31.3406131  33.8073663  84.8481777
  31.1294017  34.2346479  83.4112717  25.7652317  15.9917191  84.6854577
  25.8293643  16.8532022  84.2731975  25.7019437  15.3791193  83.9526935
  35.6398698  28.4703299  89.9381347  36.1838602  29.0833257  89.4436301
  35.0585542  29.0282877  90.4548360  22.0170132  19.8716753  74.2645966
  22.3123573  18.9627431  74.2113020  21.1158168  19.8504492  73.9426968
  33.9256211  31.5924017  81.0696374  33.8007350  30.7913756  80.5607320
  34.5835302  32.0870210  80.5810344  25.5464379  17.9472749  80.2473515
  24.8250965  18.5608717  80.1080988  26.3357635  18.4830514  80.1690161
  35.9891119  29.3933037  82.6975924  35.0421454  29.2738388  82.6254251
  36.3373892  28.5055535  82.7802186  23.7457973  17.5530850  74.3885291
  23.4170680  16.6728229  74.2060397  24.0997344  17.4978519  75.2761680
  32.9937552  29.1885753  78.8980277  32.8462515  28.2602460  79.0787847
  33.8191046  29.2105844  78.4137352  26.8599797  17.8403820  74.7560769
  27.1995869  18.3689741  74.0339377  27.3071917  18.1784226  75.5319335
  36.5971674  30.0114312  79.9845149  37.5218222  29.8057173  79.8469601
  36.4286977  29.7630713  80.8934491  29.5543237  16.2240871  84.2063837
  29.2140058  15.4248684  84.6084517  28.8482244  16.5242582  83.6340670
  30.2059709  13.3090183  82.6591160  31.0285779  12.8350661  82.5370050
  30.4497773  14.0880667  83.1589846  28.8467944  16.3378442  72.9554062
  29.5676306  16.7159694  72.4517778  28.2233248  17.0567318  73.0589040
  32.9899067  17.0423591  73.8912394  33.2062681  17.9248228  73.5901222
  32.5093134  16.6509804  73.1618036  27.7298288  20.0009304  80.4683139
  27.5842869  20.3149607  81.3607420  27.2523492  20.6194204  79.9154037
  29.5894671  16.9911852  80.5164028  29.5756240  16.0952945  80.1796326
  30.3067099  16.9982516  81.1502314  31.4420802  17.4249192  82.5617156
  31.1838579  18.3466263  82.5601486  30.9105842  17.0279627  83.2517620
  36.3866990  30.5299979  75.3407241  36.5603868  29.9646402  74.5881093
  36.8795882  31.3300874  75.1586731  22.2043950  22.5414648  83.4070800
  21.6597418  23.3174456  83.5391074  23.0823300  22.8885453  83.2489921
  28.9931567  15.8726232  75.7851598  29.1147478  14.9442878  75.9842486
  28.7033609  15.8864918  74.8729914  31.8622757  13.5581143  78.9218318
  31.8844454  13.6220476  77.9670298  32.2790816  12.7185651  79.1158824
  42.2406381  23.2936402  76.9597541  42.6837528  22.5443727  76.5616664
  41.3632892  23.2846538  76.5771273  37.3742163  29.8466744  72.4404139
  38.0693067  30.4673436  72.6591454  37.7165313  28.9962095  72.7156517
  22.9909972  21.6684544  86.3000957  22.2491708  21.8167180  86.8865587
  22.6702716  21.9292810  85.4367706  39.2733586  27.2966449  73.9691470
  39.7984910  27.6353722  73.2440790  39.1855938  26.3613464  73.7854605
  30.9353635  31.2100523  86.0981347  31.2440761  30.9649669  86.9704046
  31.7329117  31.4147161  85.6100217  30.9574247  33.3638432  78.3286723
  30.5179237  32.8714811  79.0219580  31.7082364  32.8211400  78.0878798
  23.4366586  29.5549973  78.3311351  24.2624606  29.2553745  77.9509995
  23.0860638  28.7857596  78.7801140  28.4048119  28.9076441  80.4009025
  27.7828128  28.2447146  80.1011253  29.0752986  28.9337573  79.7182673
  21.6375191  27.4736300  79.2900285  20.8007099  27.0458474  79.1084286
  21.6098836  27.6668743  80.2271076  38.9627492  27.9299353  89.2742668
  38.1723036  27.9123492  88.7347167  38.7260847  28.4687646  90.0291705
  39.0825367  24.7791819  86.5875396  39.1323372  24.6141827  87.5290919
  38.9739290  23.9119078  86.1973277  27.9661626  27.4580365  73.8767485
  28.1149746  28.1415829  73.2234158  28.7728069  27.4385455  74.3916941
  36.3729129  20.7622747  87.9034703  37.2738992  20.6229212  87.6118701
  36.4477104  20.9277202  88.8432881  30.7071935  18.1389602  86.7487889
  29.8375244  18.4323168  86.4770478  30.9431415  18.7230047  87.4695153
  40.5843564  27.1988761  86.8317418  40.2928372  27.5618741  87.6680879
  39.9715695  26.4855769  86.6530750  41.7839246  24.7641640  79.3519988
  42.6186138  25.2031444  79.5157549  41.9198375  24.2880294  78.5328234
  38.8330752  22.3221375  85.2997476  39.3084874  22.5149022  84.4916327
  37.9096317  22.3780561  85.0540860  25.7214259  23.4845542  74.8828554
  25.4760301  22.5807872  75.0808764  25.8910173  23.4862693  73.9408032
  33.4110969  14.3569219  84.2653310  33.9292912  15.0930246  83.9399798
  33.0566101  14.6633212  85.1000069  24.9909906  19.2173900  72.3814716
  24.2979151  19.2918255  71.7254752  24.7461658  18.4534244  72.9036233
  33.6623563  10.7769501  79.7854206  33.9425317  10.1092690  80.4114633
  34.4474170  10.9698597  79.2728870  31.4657031  29.9528495  71.3479233
  30.8930998  30.5718682  70.8949705  32.0389825  30.5027857  71.8819155
  37.5332421  19.1987135  83.5325782  38.4849844  19.2985233  83.5538006
  37.3635872  18.4065404  84.0423866  35.5546801  16.2842719  83.7185183
  34.9596733  16.5647731  83.0231671  35.2696497  16.7736619  84.4901924
  34.6854291  30.2365645  72.4787815  35.6184964  30.1711207  72.6820691
  34.5977504  31.0721912  72.0202348  37.3142308  29.5531516  69.4391763
  37.2355939  29.2191379  70.3327521  38.1351975  30.0453284  69.4383235
  40.0120499  22.4193255  82.6468081  39.9796819  21.4809256  82.8327765
  40.6221123  22.4977292  81.9133906  31.8503830  21.2889308  68.6895285
  32.7962934  21.1595516  68.7583703  31.4718075  20.5503970  69.1664713
  40.1614987  19.2104298  82.6926364  39.6454036  18.4262755  82.5056293
  41.0454936  18.8823015  82.8572884  37.8225714  12.9545314  78.6522177
  37.6250535  12.6460402  79.5365509  38.4325420  13.6806953  78.7820107
  45.8297049  23.4809262  81.7874118  46.5600437  23.2194550  82.3481821
  45.2203994  22.7437984  81.8276186  43.9112346  21.6217124  82.3848569
  43.1845509  21.4873089  81.7765061  43.4959633  21.9293953  83.1905287
  31.7342522  25.3407054  90.1495942  32.6545532  25.5185653  90.3435989
  31.6992105  24.3963099  89.9975642  30.0346747  19.2139284  68.6250171
  29.1278202  18.9172397  68.7012884  30.3122728  18.9169102  67.7584457
  20.9524687  20.5345648  79.0749217  20.6327472  19.6810956  78.7823591
  20.4058115  20.7494226  79.8307184  24.7304595  23.2508089  82.7918723
  24.9490605  24.1825197  82.8106757  25.1430369  22.8916063  83.5773527
  31.6508813  13.7576174  74.7794412  30.8409541  13.4123259  75.1549658
  32.3393230  13.4483718  75.3682023  33.5799361  12.8354221  76.4018708
  34.1330400  13.2549674  77.0608732  33.8169447  11.9089969  76.4441664
  28.8045532  16.0726220  68.7662150  29.6664696  16.3981118  69.0257967
  28.9895876  15.2857715  68.2535215  20.8212947  24.1548559  81.0442338
  20.1276419  23.7402512  80.5312293  21.5685938  24.1969096  80.4475757
  36.9578168  14.9454746  75.9097373  36.3776837  15.6039550  75.5275425
  36.6914101  14.1232091  75.4984790  35.4081734  14.3459804  78.1118693
  35.9081513  14.4576338  77.3033012  36.0517342  14.0420857  78.7519501
  22.7349690  24.0866813  78.9208353  22.7120378  24.1854500  77.9690236
  23.0450326  24.9331964  79.2425519  25.3937068  26.1442968  83.0354968
  26.3480321  26.1126910  82.9684899  25.1949591  25.6833592  83.8505194
  25.9836450  24.7144084  85.6025765  26.8029339  25.2088163  85.6260603
  26.2573258  23.7976052  85.5743333  35.7403046  17.1054836  74.9653721
  34.8528901  17.3904487  74.7473916  36.1557035  16.9448600  74.1180998
  39.0917582  17.1301357  78.6808060  39.8677972  17.6197810  78.9532677
  38.3665716  17.5559412  79.1379930  41.5290141  17.8428977  79.7382001
  42.1234632  17.6024713  79.0275309  41.6016724  17.1236107  80.3655537
  23.7487296  31.6862588  80.0525166  23.6141764  30.9262988  79.4863164
  23.3319359  32.4103487  79.5853955  34.8846259  26.8699511  69.0601741
  35.5882110  27.0749514  69.6759397  34.1608908  27.4376273  69.3250824
  35.7144070  22.6209372  75.1804011  35.6579271  23.0777924  74.3411644
  36.2672412  21.8600057  75.0026854  39.5248876  18.4099104  76.0054131
  39.2685810  18.0095740  76.8362338  38.9001744  19.1242898  75.8804270
  43.8361214  21.1495177  78.5125422  43.2760772  21.2188367  79.2856984
  43.2304717  20.9736162  77.7924918  26.9056422  32.5831905  80.2643608
  26.7888807  33.5277337  80.1622299  26.0848869  32.2805466  80.6529408
  36.7932957  27.3082040  71.1100201  37.6278561  26.8763239  70.9277676
  36.6317300  27.1364054  72.0377095  36.4478849  23.8114154  72.4756540
  36.3927653  23.6458425  71.5344984  35.8224904  24.5190187  72.6318730
  33.7624756  26.1163065  91.8010103  34.6315916  26.2903718  91.4396738
  33.2831508  26.9357482  91.6785832  29.7574975  13.3122263  72.0541859
  29.7453644  14.2564103  72.2110130  30.6498396  13.1292408  71.7601320
  27.9310936  33.2360166  83.4799537  28.8338183  33.2683777  83.7966032
  27.7048307  32.3060617  83.4945873  29.6864538  31.9891153  80.1409615
  28.7360170  31.9893015  80.0273988  29.9897025  31.2423888  79.6245650
  33.5727094   9.9065039  76.3087796  32.8059490   9.3523526  76.4544478
  33.9837799   9.9786908  77.1701947  45.4217232  37.8251691  81.2055378
  46.0595642  37.7058439  80.5018718  45.3038075  38.7732535  81.2643330
  42.2306938  37.7779120  81.1416902  41.8925450  37.6620184  80.2537437
  43.0996706  37.3770285  81.1217909  38.0893754  39.6314596  77.1313793
  37.5258619  39.5404533  76.3630081  37.9746149  38.8114500  77.6116286
  42.7126721  38.9313971  87.1003108  42.7015362  38.5366770  86.2283612
  42.8747361  38.1980044  87.6936879  35.6358186  41.1265788  79.9698014
  36.4279478  40.7856612  79.5544313  35.8754836  41.2360763  80.8900167
  43.6693313  43.2985564  72.4428258  43.0181292  43.8839644  72.0562272
  44.4637675  43.8291759  72.5023296  37.5948940  40.3874701  72.8415393
  38.3679816  39.8403688  72.7028268  37.9474339  41.2518950  73.0529854
  39.4333982  41.7151083  86.0482292  39.1423848  42.6196714  85.9328958
  40.0690967  41.7567611  86.7626362  40.3590189  39.0927932  82.6383652
  40.9553762  38.8683954  81.9240615  40.4165161  38.3512677  83.2409099
  39.9315218  36.5467367  70.4733843  40.1840738  36.0248888  69.7117306
  38.9939777  36.3833512  70.5760526  44.9758500  35.5503145  78.2808586
  45.7621590  35.1322568  77.9299003  45.2397205  36.4549237  78.4490234
  45.1468578  40.9875996  72.9797243  44.5114411  41.0610622  73.6918147
  44.8165984  41.5769594  72.3016322  50.3766928  35.4878378  79.1841564
  51.1092100  34.9177595  79.4179394  49.6206283  35.0999979  79.6248070
  39.6511506  38.4495473  72.6758218  39.5347764  37.7740376  73.3439302
  39.7613766  37.9627847  71.8590371  41.9943047  37.9105620  76.3804907
  41.6301255  37.3836241  77.0917828  42.8510163  37.5204089  76.2071392
  47.8992348  29.1999953  83.6436173  47.5675673  30.0695364  83.4197388
  47.3037961  28.8836237  84.3230203  41.6348534  32.9395520  71.3766255
  41.8022937  33.8075756  71.7436726  41.4445703  33.1022801  70.4527545
  44.3923867  41.4012499  83.0432086  44.0924591  42.3037537  82.9347893
  44.0474927  41.1344682  83.8953239  37.8436349  37.8526295  79.0768790
  36.9186845  37.7202509  79.2846482  38.0920762  38.6320515  79.5738732
  47.7921011  33.9195039  80.7229523  46.8837889  33.8510447  80.4288284
  47.7408607  34.3966984  81.5511348  41.6137755  35.3953177  72.3612922
  41.4937380  35.8410228  73.1998402  40.9190344  35.7438495  71.8026460
  35.2045160  37.4959569  79.9112579  35.3337541  37.7494048  80.8251991
  34.5242611  38.0887277  79.5917234  39.3744647  48.1656819  76.0103053
  39.2968677  49.1164644  76.0891534  38.7706291  47.8202691  76.6677980
  41.8661877  35.3384684  88.6664420  41.0895211  35.8978604  88.6567285
  42.5052440  35.8241467  89.1879290  49.6582658  32.1211477  82.5007397
  49.0157038  32.4144010  81.8547191  49.1537586  32.0064397  83.3060594
  47.3122821  35.8674650  73.1893256  48.2240677  36.1002037  73.0140954
  46.8032468  36.4511695  72.6268335  40.1208249  38.1470138  88.2282387
  40.8622934  38.6855182  87.9517211  39.4145235  38.7736426  88.3853939
  45.5963589  40.2899278  86.8254549  46.0046945  39.8481689  86.0809181
  44.8740851  39.7151906  87.0788742  41.9494659  35.2271885  84.1988106
  42.7955854  35.6511298  84.3422755  41.8893297  34.5705509  84.8926669
  45.9192404  40.8500469  80.5806838  45.2901266  41.0146183  79.8782905
  45.5318066  41.2642078  81.3517802  45.0994104  32.8876253  85.8569279
  44.8555036  33.6418314  85.3203555  45.3754035  33.2661601  86.6916526
  47.0532567  39.4314866  84.5346545  47.2649462  40.0746626  83.8580926
  47.0062315  38.5977182  84.0668475  44.6558796  32.0432686  81.4383117
  43.7943275  32.3413940  81.7299855  44.6821231  32.2603085  80.5064150
  41.4720366  40.5874877  77.8456923  41.9358711  40.8662580  77.0561545
  41.2077164  39.6858321  77.6630013  38.3644447  40.1346358  80.7836686
  38.9345804  40.5633627  80.1454170  38.9552558  39.8528943  81.4820872
  40.4089252  36.7098029  74.6546488  41.1113295  37.1619073  75.1220414
  40.0769880  36.0681848  75.2826381  38.8569613  35.3009786  89.0297697
  38.2268274  35.9826067  89.2633094  38.7505701  35.1892867  88.0850835
  34.1514586  34.9681582  79.9563621  33.3613640  35.2239110  79.4803732
  34.6425833  35.7829920  80.0615662  48.1678395  42.3086821  82.7068902
  48.9895839  41.9067008  82.4251584  48.1640798  42.2055055  83.6585018
  36.1029331  35.3326161  76.9147098  35.3060494  35.4444855  77.4330594
  35.8754923  35.6712813  76.0487989  41.9334999  41.8570864  84.8629613
  41.9979431  42.3191272  85.6987785  41.2245922  41.2268229  84.9911923
  32.4352289  35.2212072  82.3878612  32.6860327  36.1059082  82.6536188
  32.9711837  35.0416674  81.6153704  41.6483016  43.5238972  74.7308593
  41.5128691  44.3690508  75.1593441  42.1892829  43.7258249  73.9674527
  38.1350356  29.6030552  91.3922948  37.7417301  29.0496750  92.0670593
  38.9516496  29.9141130  91.7829466  35.1012414  41.0414410  75.3036518
  35.6136934  41.8357660  75.4542083  35.7535126  40.3440700  75.2370120
  36.9107298  44.1580166  77.3859271  37.0873927  45.0798131  77.1980255
  37.7064132  43.8438585  77.8153651  41.0518317  31.0188431  88.9843205
  41.7928030  31.6195584  88.9047667  41.2836240  30.2766069  88.4261247
  36.1959655  36.2044798  87.2621435  36.0813170  35.3030055  87.5628533
  35.3404173  36.4508495  86.9106251  43.2751493  44.1462538  88.8608935
  42.8315347  43.3598917  88.5429840  43.9368706  44.3341689  88.1952826
  38.0338614  45.6758340  83.3869614  38.5846039  45.5475403  82.6146608
  37.1950090  45.9753229  83.0364506  45.3732731  44.4265338  86.8890336
  45.3551206  45.2474219  86.3970606  46.2952651  44.3019414  87.1140478
  41.8305785  41.9409468  87.7313845  42.3634122  41.1797756  87.5013153
  41.3019866  41.6483120  88.4737999  44.9975480  27.0469534  83.2607487
  44.6539749  27.9371175  83.1846597  45.3654442  26.8571191  82.3977072
  33.0661330  39.3703064  76.0796089  33.9036552  39.7800073  75.8629796
  33.2439598  38.4302506  76.0496283  44.9625762  37.0378145  71.7679922
  44.4472386  37.8082749  72.0068309  44.6903071  36.3643281  72.3912983
  42.5472874  31.8827846  76.8265160  41.6914470  31.4934696  76.6470799
  42.9599825  31.9619806  75.9664946  44.0772020  29.4174189  81.2256720
  43.5736816  29.3804324  80.4124525  44.3702627  30.3266932  81.2853376
  40.3214906  29.5012919  80.2322902  41.1867903  29.3055727  79.8728791
  40.3892415  29.2723270  81.1592258  44.7512066  34.9105237  73.5939703
  44.4462201  35.2251386  74.4449846  45.7042508  34.9886657  73.6367036
  43.1958498  41.0695460  75.2432657  42.6679859  40.3348220  74.9305894
  42.6946000  41.8470137  74.9972625  48.1751344  39.2644481  80.3599703
  47.5175018  39.9543742  80.4479832  48.9791743  39.6540913  80.7033689
  37.9277225  31.7315127  77.6039268  38.5020977  31.5090308  76.8712461
  38.5148208  31.8003821  78.3567870  46.9856802  37.6188853  78.4103645
  47.4988684  38.2518845  78.9125355  47.6358026  37.0190049  78.0447005
  38.2546812  33.7619588  71.6235154  37.4184124  34.0994274  71.9444428
  38.1151582  33.6268567  70.6862291  40.2299893  28.6056375  76.3314338
  39.5764305  28.2905393  75.7070953  40.1880367  27.9832116  77.0574161
  41.3411098  38.8875671  68.2467630  40.4338159  38.6564924  68.4458779
  41.8382130  38.0913290  68.4341611  44.2479177  47.5973178  71.1664316
  43.5740875  47.9004874  71.7749274  44.6344999  48.4002258  70.8169773
  43.4637633  35.0938309  80.6561985  42.5460195  35.3153256  80.4983673
  43.8797777  35.1684619  79.7973693  44.2472681  36.4929725  75.7864666
  44.9944500  37.0051122  75.4771788  44.5164270  36.1713777  76.6469059
  42.5199331  38.9888265  72.7691620  41.6110550  38.7047298  72.8664090
  42.5494415  39.4087344  71.9094927  46.6951518  33.5286841  77.7683455
  45.9574275  33.0164227  78.0993698  46.9478292  33.0887223  76.9566732
  46.1951538  44.4371352  77.4732606  46.4874512  44.9976409  76.7544971
  46.7050158  44.7299913  78.2285765  46.7963145  26.3063093  78.3625224
  47.1022022  25.4460456  78.0751139  47.5215750  26.8980713  78.1624218
  33.0887502  36.7093780  76.7506822  32.8911901  36.1163140  76.0257889
  32.5334166  36.4045990  77.4682761  41.0684225  36.6016886  78.8701415
  41.1232835  35.6490722  78.7943892  40.2575427  36.7576325  79.3542714
  42.2175419  40.5297009  70.1079699  41.7794849  39.8132868  69.6485336
  42.9585860  40.7573124  69.5464790  39.0076585  35.2193946  76.6291794
  38.1944451  35.5188116  77.0356986  39.5035579  34.8249635  77.3466276
  41.1585163  45.2151703  78.5626059  41.1161342  45.4412549  77.6334591
  42.0747862  44.9815077  78.7111860  44.6050797  35.6835770  85.4606688
  44.9600184  35.9107243  86.3201154  45.2522928  36.0154147  84.8383943
  38.4990660  32.7912301  82.2453029  39.1390039  32.6501060  81.5475992
  37.6668190  32.5046815  81.8691631  39.2750964  42.0914732  78.3588022
  40.0691562  41.5965052  78.1570597  38.5642656  41.5632595  77.9955727
  44.0945808  44.4732827  82.7100389  44.1482831  45.0423764  83.4778105
  43.2260590  44.6434712  82.3454426  35.5833727  36.2357813  74.4347774
  34.6531315  36.1742269  74.6517736  35.6791199  35.7133766  73.6384415
  35.5019276  32.7612626  77.0226016  35.7626094  33.6757959  76.9135176
  36.3236449  32.2937069  77.1722629  36.9744202  34.1750383  84.1924840
  37.6467255  33.9667746  83.5437489  36.1473988  33.9772469  83.7530073
  51.2233463  40.9154434  83.7100174  51.4169353  41.8200244  83.9559449
  51.1234081  40.4561853  84.5438759  42.8769774  30.8012324  86.2090501
  42.2297689  31.5002274  86.1154978  43.6470789  31.2348468  86.5766750
  46.2848572  41.0661177  89.2841055  46.1334078  40.8371728  88.3671138
  46.2753251  42.0231778  89.2972400  43.0533908  38.6393089  84.2687321
  43.9825968  38.7904249  84.0956288  42.6324938  38.7277110  83.4135968
  41.8522240  42.6643754  82.0385859  41.7133325  42.2962538  82.9111797
  41.0636836  43.1791393  81.8669816  42.4470392  47.7652850  73.3811395
  42.6222147  47.2940893  74.1957018  41.7603180  48.3918616  73.6092656
  43.4027455  42.0425356  79.4274696  43.0677288  42.0026126  80.3232346
  42.9031401  41.3770072  78.9545107  37.3771699  37.4492986  84.9527278
  37.2391497  36.7173225  85.5538817  38.2876622  37.3601886  84.6711465
  46.3386647  39.3881391  69.7011756  45.7215817  38.6628219  69.6044809
  45.8703135  40.1490751  69.3578830  40.0054000  37.1612946  84.4410957
  40.7153618  36.5206138  84.3997576  39.9623308  37.4125841  85.3637138
  47.9940778  44.0980299  87.3617536  47.9353324  43.4139519  86.6948119
  48.3960297  44.8399289  86.9098162  38.7182933  34.1478164  86.2606597
  38.1820291  33.6968902  86.9128193  38.1299642  34.2824072  85.5177061
  37.0131477  50.9142213  80.1551255  37.2528075  51.5460737  80.8330274
  36.1700673  50.5630253  80.4416615  38.1285192  33.6066815  68.8233060
  37.2514659  33.4855616  68.4595307  38.6042946  32.8152893  68.5711949
  47.9958185  42.0619883  85.5931516  47.1084964  41.7245805  85.7157915
  48.5656737  41.3302914  85.8300282  29.6487333  38.3943975  78.9174568
  30.3358372  38.0805705  78.3295583  29.4935461  39.2985339  78.6441819
  34.4522055  33.2834171  83.3459591  34.3680243  32.6759841  82.6110001
  33.6304761  33.7743190  83.3469088  41.5259339  46.7221335  82.5592759
  41.4529510  47.5276307  83.0712064  41.0836732  46.9213301  81.7340781
  41.3149118  45.9593105  76.0695581  40.5316640  46.5014786  76.1633805
  42.0141864  46.4767085  76.4689822  44.6245769  31.7687735  78.7129786
  45.1214468  31.0157697  78.3930857  43.8532750  31.8052051  78.1472996
  52.4775526  37.4728100  80.3548078  52.4665402  38.3552816  79.9842011
  51.6092905  37.1199651  80.1602615  43.9858022  46.6208169  84.7150918
  44.6985995  47.2555634  84.6426819  43.4948051  46.7172035  83.8990920
  45.7075549  40.5259422  76.2868210  44.7731828  40.6460885  76.1172914
  45.8852218  39.6231889  76.0228219  41.2080737  33.9105118  78.4401471
  40.8378525  33.3576158  79.1282376  41.7039830  33.3063251  77.8876471
  49.0948101  36.3676741  76.8218244  49.5608553  37.2004733  76.7478546
  49.5455601  35.9021723  77.5263502  39.0369936  44.3702613  85.5356489
  39.7379395  45.0039096  85.6885883  38.5665051  44.7117344  84.7752128
  47.0664763  28.7357328  80.8609145  46.1527843  28.9661555  81.0291352
  47.4957865  28.8195772  81.7123178  46.8371222  36.9247220  83.3609039
  46.1842672  37.1723128  82.7061492  47.2151602  36.1111358  83.0271516
  43.7978396  46.9606913  77.4637209  43.9800790  46.1428569  77.9264962
  44.6211382  47.1774606  77.0262099  44.1320561  45.8875099  74.7252258
  44.6608328  45.3767553  74.1122420  44.3948781  45.5717629  75.5897791
  42.8858795  37.6667031  89.8475076  42.2099432  37.5661161  90.5177451
  43.7086429  37.5106245  90.3111073  34.6337654  43.9038968  82.4687591
  35.2191091  43.1582656  82.6015496  34.4362492  44.2142925  83.3524255
  37.4876309  46.9390215  77.4850034  36.8186684  47.4236343  77.0014074
  37.3489179  47.1859436  78.3993412  29.2255309  36.4744568  81.1892035
  29.2639408  35.9408159  81.9829153  28.7195602  35.9479774  80.5703012
  41.6281578  48.9733959  84.0832692  42.1799886  49.1365580  84.8481777
  41.9687771  49.5638397  83.4112717  36.6046071  31.3209109  84.6854577
  36.6687398  32.1823940  84.2731975  36.5413191  30.7083110  83.9526935
  36.0798344  33.3932241  88.3327611  36.7070382  33.0109318  88.9465136
  35.2226262  33.1746443  88.6983304  46.4792452  43.7995216  89.9381347
  47.0232356  44.4125175  89.4436301  45.8979297  44.3574795  90.4548360
  32.8563886  35.2008670  74.2645966  33.1517327  34.2919349  74.2113020
  31.9551922  35.1796410  73.9426968  44.7649965  46.9215934  81.0696374
  44.6401105  46.1205674  80.5607320  45.4229056  47.4162128  80.5810344
  36.3858133  33.2764667  80.2473515  35.6644719  33.8900635  80.1080988
  37.1751389  33.8122432  80.1690161  46.8284873  44.7224954  82.6975924
  45.8815209  44.6030306  82.6254251  47.1767647  43.8347452  82.7802186
  39.1884447  30.6119093  86.5214166  39.7118849  30.8581390  87.2840476
  38.9696780  31.4439128  86.1017304  34.5851728  32.8822768  74.3885291
  34.2564434  32.0020147  74.2060397  34.9391099  32.8270437  75.2761680
  43.8331307  44.5177671  78.8980277  43.6856269  43.5894378  79.0787847
  44.6584800  44.5397761  78.4137352  37.6993551  33.1695738  74.7560769
  38.0389624  33.6981659  74.0339377  38.1465672  33.5076144  75.5319335
  47.4365429  45.3406229  79.9845149  48.3611976  45.1349091  79.8469601
  47.2680732  45.0922631  80.8934491  40.3936992  31.5532788  84.2063837
  40.0533812  30.7540601  84.6084517  39.6875998  31.8534499  83.6340670
  41.0453464  28.6382101  82.6591160  41.8679533  28.1642579  82.5370050
  41.2891527  29.4172585  83.1589846  39.6861698  31.6670359  72.9554062
  40.4070061  32.0451612  72.4517778  39.0627002  32.3859236  73.0589040
  43.8292821  32.3715508  73.8912394  44.0456435  33.2540146  73.5901222
  43.3486888  31.9801722  73.1618036  38.5692042  35.3301221  80.4683139
  38.4236623  35.6441525  81.3607420  38.0917246  35.9486122  79.9154037
  40.4288425  32.3203769  80.5164028  40.4149994  31.4244863  80.1796326
  41.1460853  32.3274433  81.1502314  42.2814556  32.7541110  82.5617156
  42.0232334  33.6758180  82.5601486  41.7499596  32.3571544  83.2517620
  33.0437705  37.8706566  83.4070800  32.4991173  38.6466374  83.5391074
  33.9217054  38.2177370  83.2489921  39.8325321  31.2018150  75.7851598
  39.9541232  30.2734796  75.9842486  39.5427364  31.2156836  74.8729914
  42.7016512  28.8873060  78.9218318  42.7238208  28.9512393  77.9670298
  43.1184571  28.0477569  79.1158824  33.8303726  36.9976462  86.3000957
  33.0885463  37.1459098  86.8865587  33.5096471  37.2584728  85.4367706
  41.7747389  46.5392440  86.0981347  42.0834516  46.2941587  86.9704046
  42.5722871  46.7439079  85.6100217  41.7968001  48.6930350  78.3286723
  41.3572991  48.2006729  79.0219580  42.5476118  48.1503318  78.0878798
  34.2760340  44.8841891  78.3311351  35.1018360  44.5845663  77.9509995
  33.9254392  44.1149513  78.7801140  39.2441873  44.2368359  80.4009025
  38.6221883  43.5739064  80.1011253  39.9146740  44.2629491  79.7182673
  32.4768945  42.8028217  79.2900285  31.6400853  42.3750392  79.1084286
  32.4492591  42.9960661  80.2271076  39.3166401  32.7150147  89.9941531
  39.3654556  33.5912270  89.6119300  39.8588915  32.1727540  89.4213174
  49.8021246  43.2591270  89.2742668  49.0116790  43.2415409  88.7347167
  49.5654601  43.7979564  90.0291705  49.9219122  40.1083737  86.5875396
  49.9717126  39.9433744  87.5290919  49.8133045  39.2410996  86.1973277
  38.8055380  42.7872282  73.8767485  38.9543501  43.4707747  73.2234158
  39.6121824  42.7677373  74.3916941  47.2122884  36.0914665  87.9034703
  48.1132747  35.9521130  87.6118701  47.2870858  36.2569120  88.8432881
  41.5465689  33.4681520  86.7487889  40.6768999  33.7615086  86.4770478
  41.7825170  34.0521965  87.4695153  51.4237318  42.5280678  86.8317418
  51.1322127  42.8910659  87.6680879  50.8109450  41.8147687  86.6530750
  49.6724507  37.6513293  85.2997476  50.1478628  37.8440939  84.4916327
  48.7490072  37.7072479  85.0540860  36.5608013  38.8137460  74.8828554
  36.3154055  37.9099790  75.0808764  36.7303928  38.8154611  73.9408032
  44.2504723  29.6861136  84.2653310  44.7686667  30.4222163  83.9399798
  43.8959856  29.9925130  85.1000069  35.8303661  34.5465818  72.3814716
  35.1372906  34.6210173  71.7254752  35.5855413  33.7826161  72.9036233
  44.5017317  26.1061419  79.7854206  44.7819071  25.4384608  80.4114633
  45.2867924  26.2990515  79.2728870  42.3050786  45.2820413  71.3479233
  41.7324753  45.9010600  70.8949705  42.8783579  45.8319775  71.8819155
  48.3726176  34.5279053  83.5325782  49.3243598  34.6277151  83.5538006
  48.2029626  33.7357322  84.0423866  46.3940555  31.6134636  83.7185183
  45.7990487  31.8939649  83.0231671  46.1090252  32.1028537  84.4901924
  45.5248046  45.5657563  72.4787815  46.4578719  45.5003125  72.6820691
  45.4371258  46.4013830  72.0202348  50.8514253  37.7485173  82.6468081
  50.8190573  36.8101173  82.8327765  51.4614877  37.8269209  81.9133906
  42.6897584  36.6181226  68.6895285  43.6356689  36.4887434  68.7583703
  42.3111829  35.8795888  69.1664713  51.0008742  34.5396216  82.6926364
  50.4847791  33.7554673  82.5056293  51.8848690  34.2114933  82.8572884
  48.6619469  28.2837232  78.6522177  48.4644290  27.9752320  79.5365509
  49.2719174  29.0098871  78.7820107  56.6690803  38.8101180  81.7874118
  57.3994192  38.5486468  82.3481821  56.0597749  38.0729901  81.8276186
  54.7506100  36.9509042  82.3848569  54.0239264  36.8165007  81.7765061
  54.3353387  37.2585871  83.1905287  42.5736277  40.6698972  90.1495942
  43.4939286  40.8477571  90.3435989  42.5385860  39.7255017  89.9975642
  40.8740501  34.5431202  68.6250171  39.9671957  34.2464315  68.7012884
  41.1516482  34.2461020  67.7584457  31.7918442  35.8637565  79.0749217
  31.4721226  35.0102874  78.7823591  31.2451870  36.0786144  79.8307184
  35.5698349  38.5800006  82.7918723  35.7884359  39.5117114  82.8106757
  35.9824123  38.2207981  83.5773527  42.4902567  29.0868092  74.7794412
  41.6803295  28.7415177  75.1549658  43.1786984  28.7775635  75.3682023
  44.4193115  28.1646139  76.4018708  44.9724154  28.5841592  77.0608732
  44.6563202  27.2381887  76.4441664  40.4426215  34.1533212  92.1821472
  40.3422942  35.1027569  92.1133563  40.2247757  33.8251451  91.3097542
  39.6439286  31.4018137  68.7662150  40.5058450  31.7273036  69.0257967
  39.8289630  30.6149633  68.2535215  31.6606702  39.4840477  81.0442338
  30.9670173  39.0694430  80.5312293  32.4079693  39.5261013  80.4475757
  47.7971922  30.2746664  75.9097373  47.2170592  30.9331468  75.5275425
  47.5307855  29.4524008  75.4984790  46.2475489  29.6751721  78.1118693
  46.7475267  29.7868256  77.3033012  46.8911097  29.3712774  78.7519501
  40.3057485  37.5830351  90.9986534  39.8224566  38.3830711  91.2050423
  40.3918424  37.5938296  90.0453978  33.5743444  39.4158731  78.9208353
  33.5514132  39.5146418  77.9690236  33.8844081  40.2623882  79.2425519
  36.2330822  41.4734886  83.0354968  37.1874076  41.4418828  82.9684899
  36.0343346  41.0125509  83.8505194  36.8230204  40.0436002  85.6025765
  37.6423093  40.5380080  85.6260603  37.0967012  39.1267970  85.5743333
  46.5796801  32.4346754  74.9653721  45.6922656  32.7196405  74.7473916
  46.9950790  32.2740517  74.1180998  49.9311337  32.4593275  78.6808060
  50.7071727  32.9489728  78.9532677  49.2059471  32.8851329  79.1379930
  52.3683895  33.1720894  79.7382001  52.9628386  32.9316630  79.0275309
  52.4410479  32.4528025  80.3655537  34.5881051  47.0154505  80.0525166
  34.4535519  46.2554906  79.4863164  34.1713113  47.7395405  79.5853955
  50.3642630  33.7391022  76.0054131  50.1079564  33.3387658  76.8362338
  49.7395498  34.4534816  75.8804270  54.6754968  36.4787095  78.5125422
  54.1154526  36.5480284  79.2856984  54.0698471  36.3028080  77.7924918
  37.7450177  47.9123822  80.2643608  37.6282561  48.8569255  80.1622299
  36.9242623  47.6097384  80.6529408  32.0765119  34.3774136  86.3017963
  32.7223982  33.8673090  86.7905188  31.8682270  35.1142817  86.8761388
  44.6018511  41.4454983  91.8010103  45.4709670  41.6195635  91.4396738
  44.1225262  42.2649400  91.6785832  40.5968729  28.6414180  72.0541859
  40.5847399  29.5856020  72.2110130  41.4892151  28.4584326  71.7601320
  38.7704691  48.5652084  83.4799537  39.6731938  48.5975694  83.7966032
  38.5442061  47.6352535  83.4945873  40.5258293  47.3183071  80.1409615
  39.5753924  47.3184932  80.0273988  40.8290779  46.5715805  79.6245650
  44.4120848  25.2356957  76.3087796  43.6453244  24.6815444  76.4544478
  44.8231553  25.3078826  77.1701947  36.4162610  31.5241753  90.3992977
  37.2794071  31.1678558  90.6096301  35.8428020  31.1855648  91.0868381
  53.5520476  54.2605889  87.1003108  53.5409117  53.8658687  86.2283612
  53.7141115  53.5271962  87.6936879  50.2727737  57.0443001  86.0482292
  49.9817603  57.9488632  85.9328958  50.9084721  57.0859528  86.7626362
  51.1983944  54.4219849  82.6383652  51.7947516  54.1975872  81.9240615
  51.2558915  53.6804595  83.2409099  55.2317622  56.7304416  83.0432086
  54.9318345  57.6329455  82.9347893  54.8868681  56.4636599  83.8953239
  52.7055632  50.6676602  88.6664420  51.9288966  51.2270522  88.6567285
  53.3446195  51.1533385  89.1879290  50.9602004  53.4762055  88.2282387
  51.7016688  54.0147099  87.9517211  50.2538989  54.1028344  88.3853939
  56.4357343  55.6191196  86.8254549  56.8440700  55.1773606  86.0809181
  55.7134605  55.0443823  87.0788742  49.6963368  50.6301704  89.0297697
  49.0662028  51.3117984  89.2633094  49.5899455  50.5184785  88.0850835
  52.7728753  57.1862782  84.8629613  52.8373186  57.6483189  85.6987785
  52.0639677  56.5560147  84.9911923  43.2746043  50.5503990  82.3878612
  43.5254081  51.4351000  82.6536188  43.8105591  50.3708592  81.6153704
  48.9744110  44.9322469  91.3922948  48.5811056  44.3788668  92.0670593
  49.7910251  45.2433048  91.7829466  51.8912071  46.3480348  88.9843205
  52.6321785  46.9487502  88.9047667  52.1229994  45.6057986  88.4261247
  47.0353409  51.5336716  87.2621435  46.9206924  50.6321973  87.5628533
  46.1797927  51.7800412  86.9106251  54.1145247  59.4754456  88.8608935
  53.6709101  58.6890835  88.5429840  54.7762461  59.6633607  88.1952826
  48.8732368  61.0050258  83.3869614  49.4239793  60.8767321  82.6146608
  48.0343844  61.3045147  83.0364506  56.2126485  59.7557256  86.8890336
  56.1944960  60.5766137  86.3970606  57.1346405  59.6311331  87.1140478
  52.6699539  57.2701385  87.7313845  53.2027876  56.5089674  87.5013153
  52.1413620  56.9775037  88.4737999  55.8369234  42.3761451  83.2607487
  55.4933504  43.2663093  83.1846597  56.2048197  42.1863109  82.3977072
  49.0940567  49.0911505  71.6235154  48.2577879  49.4286192  71.9444428
  48.9545336  48.9560485  70.6862291  49.3384414  48.1204219  82.2453029
  49.9783794  47.9792978  81.5475992  48.5061945  47.8338732  81.8691631
  46.3413031  48.0904544  77.0226016  46.6019848  49.0049877  76.9135176
  47.1630203  47.6228986  77.1722629  47.8137956  49.5042301  84.1924840
  48.4861010  49.2959663  83.5437489  46.9867743  49.3064387  83.7530073
  62.0627217  56.2446351  83.7100174  62.2563107  57.1492162  83.9559449
  61.9627836  55.7853771  84.5438759  53.7163528  46.1304242  86.2090501
  53.0691443  46.8294192  86.1154978  54.4864544  46.5640386  86.5766750
  57.1242326  56.3953094  89.2841055  56.9727832  56.1663646  88.3671138
  57.1147006  57.3523696  89.2972400  53.8927662  53.9685007  84.2687321
  54.8219722  54.1196167  84.0956288  53.4718692  54.0569028  83.4135968
  48.2165453  52.7784904  84.9527278  48.0785251  52.0465143  85.5538817
  49.1270377  52.6893804  84.6711465  50.8447754  52.4904863  84.4410957
  51.5547373  51.8498056  84.3997576  50.8017062  52.7417758  85.3637138
  58.8334533  59.4272217  87.3617536  58.7747079  58.7431437  86.6948119
  59.2354051  60.1691207  86.9098162  49.5576688  49.4770081  86.2606597
  49.0214045  49.0260820  86.9128193  48.9693396  49.6115990  85.5177061
  58.8351940  57.3911801  85.5931516  57.9478719  57.0537722  85.7157915
  59.4050491  56.6594832  85.8300282  45.2915809  48.6126089  83.3459591
  45.2073998  48.0051759  82.6110001  44.4698516  49.1035107  83.3469088
  54.8251777  61.9500087  84.7150918  55.5379749  62.5847552  84.6426819
  54.3341806  62.0463953  83.8990920  49.8763690  59.6994531  85.5356489
  50.5773150  60.3331013  85.6885883  49.4058805  60.0409262  84.7752128
  53.7252549  52.9958949  89.8475076  53.0493186  52.8953078  90.5177451
  54.5480183  52.8398163  90.3111073  40.0649063  51.8036486  81.1892035
  40.1033163  51.2700076  81.9829153  39.5589356  51.2771691  80.5703012
  52.4675332  64.3025876  84.0832692  53.0193640  64.4657498  84.8481777
  52.8081526  64.8930314  83.4112717  47.4439826  46.6501026  84.6854577
  47.5081152  47.5115857  84.2731975  47.3806946  46.0375028  83.9526935
  46.9192098  48.7224159  88.3327611  47.5464137  48.3401236  88.9465136
  46.0620017  48.5038361  88.6983304  57.3186207  59.1287134  89.9381347
  57.8626111  59.7417092  89.4436301  56.7373051  59.6866712  90.4548360
  47.2251888  48.6056584  80.2473515  46.5038474  49.2192552  80.1080988
  48.0145144  49.1414349  80.1690161  57.6678628  60.0516872  82.6975924
  56.7208963  59.9322223  82.6254251  58.0161401  59.1639370  82.7802186
  50.0278201  45.9411011  86.5214166  50.5512603  46.1873308  87.2840476
  49.8090535  46.7731046  86.1017304  45.4245482  48.2114686  74.3885291
  45.0958189  47.3312065  74.2060397  45.7784853  48.1562354  75.2761680
  58.2759183  60.6698147  79.9845149  59.2005731  60.4641008  79.8469601
  58.1074486  60.4214548  80.8934491  51.8847218  43.9674019  82.6591160
  52.7073287  43.4934497  82.5370050  52.1285282  44.7464502  83.1589846
  49.4085797  50.6593139  80.4683139  49.2630378  50.9733442  81.3607420
  48.9311001  51.2778039  79.9154037  43.8831459  53.1998484  83.4070800
  43.3384927  53.9758292  83.5391074  44.7610809  53.5469288  83.2489921
  44.6697481  52.3268380  86.3000957  43.9279217  52.4751015  86.8865587
  44.3490225  52.5876645  85.4367706  52.6141144  61.8684358  86.0981347
  52.9228270  61.6233505  86.9704046  53.4116626  62.0730997  85.6100217
  50.1560155  48.0442065  89.9941531  50.2048311  48.9204188  89.6119300
  50.6982669  47.5019458  89.4213174  60.6415001  58.5883188  89.2742668
  59.8510545  58.5707327  88.7347167  60.4048356  59.1271482  90.0291705
  60.7612876  55.4375654  86.5875396  60.8110881  55.2725662  87.5290919
  60.6526799  54.5702913  86.1973277  58.0516638  51.4206582  87.9034703
  58.9526501  51.2813047  87.6118701  58.1264613  51.5861037  88.8432881
  52.3859444  48.7973437  86.7487889  51.5162753  49.0907003  86.4770478
  52.6218924  49.3813882  87.4695153  62.2631073  57.8572596  86.8317418
  61.9715881  58.2202576  87.6680879  61.6503204  57.1439604  86.6530750
  60.5118261  52.9805211  85.2997476  60.9872383  53.1732857  84.4916327
  59.5883826  53.0364396  85.0540860  46.6697415  49.8757735  72.3814716
  45.9766660  49.9502090  71.7254752  46.4249167  49.1118079  72.9036233
  53.5291339  51.9473143  68.6895285  54.4750443  51.8179351  68.7583703
  53.1505584  51.2087805  69.1664713  53.4130031  55.9990889  90.1495942
  54.3333041  56.1769488  90.3435989  53.3779614  55.0546935  89.9975642
  51.7134256  49.8723120  68.6250171  50.8065711  49.5756232  68.7012884
  51.9910237  49.5752938  67.7584457  51.2819969  49.4825130  92.1821472
  51.1816696  50.4319487  92.1133563  51.0641511  49.1543369  91.3097542
  51.1451239  52.9122269  90.9986534  50.6618321  53.7122629  91.2050423
  51.2312178  52.9230214  90.0453978  47.6623959  55.3727919  85.6025765
  48.4816848  55.8671998  85.6260603  47.9360767  54.4559888  85.5743333
  42.9158873  49.7066053  86.3017963  43.5617737  49.1965007  86.7905188
  42.7076024  50.4434735  86.8761388  55.4412265  56.7746901  91.8010103
  56.3103425  56.9487553  91.4396738  54.9619017  57.5941318  91.6785832
  49.6098445  63.8944002  83.4799537  50.5125692  63.9267612  83.7966032
  49.3835816  62.9644453  83.4945873  47.2556364  46.8533670  90.3992977
  48.1187826  46.4970475  90.6096301  46.6821775  46.5147565  91.0868381
  67.1004741  68.4835527  81.2055378  67.7383151  68.3642274  80.5018718
  66.9825584  69.4316371  81.2643330  63.9094447  68.4362955  81.1416902
  63.5712959  68.3204020  80.2537437  64.7784215  68.0354120  81.1217909
  64.3914230  69.5897807  87.1003108  64.3802871  69.1950605  86.2283612
  64.5534870  68.8563879  87.6936879  57.3145695  71.7849623  79.9698014
  58.1066987  71.4440448  79.5544313  57.5542345  71.8944598  80.8900167
  65.3480822  73.9569399  72.4428258  64.6968801  74.5423479  72.0562272
  66.1425184  74.4875594  72.5023296  59.2736449  71.0458536  72.8415393
  60.0467325  70.4987523  72.7028268  59.6261848  71.9102785  73.0529854
  61.1121491  72.3734918  86.0482292  60.8211357  73.2780549  85.9328958
  61.7478476  72.4151446  86.7626362  62.0377698  69.7511767  82.6383652
  62.6341270  69.5267789  81.9240615  62.0952670  69.0096512  83.2409099
  61.6102727  67.2051202  70.4733843  61.8628247  66.6832724  69.7117306
  60.6727286  67.0417348  70.5760526  66.6546009  66.2086981  78.2808586
  67.4409099  65.7906404  77.9299003  66.9184714  67.1133073  78.4490234
  66.8256087  71.6459831  72.9797243  66.1901920  71.7194457  73.6918147
  66.4953493  72.2353430  72.3016322  72.0554437  66.1462214  79.1841564
  72.7879609  65.5761431  79.4179394  71.2993792  65.7583814  79.6248070
  61.3299015  69.1079308  72.6758218  61.2135273  68.4324212  73.3439302
  61.4401275  68.6211682  71.8590371  63.6730556  68.5689455  76.3804907
  63.3088764  68.0420076  77.0917828  64.5297672  68.1787924  76.2071392
  69.5779857  59.8583788  83.6436173  69.2463182  60.7279199  83.4197388
  68.9825470  59.5420072  84.3230203  63.3136043  63.5979355  71.3766255
  63.4810446  64.4659591  71.7436726  63.1233212  63.7606637  70.4527545
  66.0711376  72.0596334  83.0432086  65.7712100  72.9621373  82.9347893
  65.7262436  71.7928517  83.8953239  69.4708520  64.5778874  80.7229523
  68.5625398  64.5094283  80.4288284  69.4196116  65.0550819  81.5511348
  63.2925264  66.0537012  72.3612922  63.1724889  66.4994063  73.1998402
  62.5977853  66.4022330  71.8026460  61.0532156  78.8240654  76.0103053
  60.9756186  79.7748479  76.0891534  60.4493800  78.4786527  76.6677980
  63.5449386  65.9968520  88.6664420  62.7682720  66.5562440  88.6567285
  64.1839949  66.4825303  89.1879290  71.3370167  62.7795312  82.5007397
  70.6944547  63.0727846  81.8547191  70.8325095  62.6648233  83.3060594
  68.9910330  66.5258486  73.1893256  69.9028186  66.7585872  73.0140954
  68.4819977  67.1095530  72.6268335  61.7995758  68.8053973  88.2282387
  62.5410443  69.3439017  87.9517211  61.0932744  69.4320262  88.3853939
  67.2751098  70.9483114  86.8254549  67.6834454  70.5065524  86.0809181
  66.5528359  70.3735741  87.0788742  63.6282168  65.8855720  84.1988106
  64.4743363  66.3095134  84.3422755  63.5680806  65.2289345  84.8926669
  67.5979913  71.5084304  80.5806838  66.9688775  71.6730018  79.8782905
  67.2105575  71.9225914  81.3517802  71.4769145  72.4438742  77.9351201
  70.7920183  72.8237643  77.3848235  71.5612994  73.0534069  78.6683149
  66.7781613  63.5460089  85.8569279  66.5342545  64.3002149  85.3203555
  67.0541544  63.9245436  86.6916526  68.7320076  70.0898701  84.5346545
  68.9436971  70.7330461  83.8580926  68.6849824  69.2561018  84.0668475
  66.3346305  62.7016522  81.4383117  65.4730784  62.9997775  81.7299855
  66.3608740  62.9186921  80.5064150  63.1507875  71.2458712  77.8456923
  63.6146220  71.5246415  77.0561545  62.8864673  70.3442157  77.6630013
  60.0431956  70.7930194  80.7836686  60.6133313  71.2217462  80.1454170
  60.6340067  70.5112778  81.4820872  60.5357122  65.9593621  89.0297697
  59.9055783  66.6409902  89.2633094  60.4293210  65.8476703  88.0850835
  69.8465904  72.9670656  82.7068902  70.6683348  72.5650844  82.4251584
  69.8428307  72.8638891  83.6585018  63.6122508  72.5154700  84.8629613
  63.6766940  72.9775107  85.6987785  62.9033431  71.8852065  84.9911923
  77.9371897  69.3109405  79.0553874  77.1835606  68.7416803  78.8997878
  78.0719438  69.2772069  80.0024508  63.3270525  74.1822807  74.7308593
  63.1916200  75.0274343  75.1593441  63.8680338  74.3842085  73.9674527
  59.8137865  60.2614387  91.3922948  59.4204810  59.7080586  92.0670593
  60.6304005  60.5724966  91.7829466  58.5894807  74.8164002  77.3859271
  58.7661436  75.7381966  77.1980255  59.3851641  74.5022421  77.8153651
  62.7305826  61.6772266  88.9843205  63.4715539  62.2779419  88.9047667
  62.9623749  60.9349904  88.4261247  57.8747164  66.8628633  87.2621435
  57.7600679  65.9613891  87.5628533  57.0191682  67.1092330  86.9106251
  64.9539002  74.8046374  88.8608935  64.5102856  74.0182752  88.5429840
  65.6156215  74.9925524  88.1952826  59.7126123  76.3342175  83.3869614
  60.2633548  76.2059239  82.6146608  58.8737599  76.6337064  83.0364506
  67.0520240  75.0849174  86.8890336  67.0338715  75.9058055  86.3970606
  67.9740160  74.9603249  87.1140478  63.5093294  72.5993303  87.7313845
  64.0421631  71.8381591  87.5013153  62.9807375  72.3066955  88.4737999
  66.6762989  57.7053369  83.2607487  66.3327258  58.5955011  83.1846597
  67.0441951  57.5155027  82.3977072  66.6413271  67.6961980  71.7679922
  66.1259895  68.4666585  72.0068309  66.3690580  67.0227116  72.3912983
  64.2260383  62.5411681  76.8265160  63.3701979  62.1518531  76.6470799
  64.6387334  62.6203642  75.9664946  65.7559529  60.0758024  81.2256720
  65.2524325  60.0388159  80.4124525  66.0490136  60.9850767  81.2853376
  62.0002415  60.1596754  80.2322902  62.8655412  59.9639563  79.8728791
  62.0679924  59.9307106  81.1592258  71.6147546  70.4494335  73.7033095
  70.8376988  70.1105494  73.2588257  72.2939027  70.4546958  73.0288060
  66.4299575  65.5689072  73.5939703  66.1249710  65.8835221  74.4449846
  67.3830017  65.6470492  73.6367036  64.8746006  71.7279296  75.2432657
  64.3467368  70.9932055  74.9305894  64.3733509  72.5053972  74.9972625
  69.8538853  69.9228316  80.3599703  69.1962527  70.6127577  80.4479832
  70.6579252  70.3124748  80.7033689  59.6064734  62.3898962  77.6039268
  60.1808486  62.1674143  76.8712461  60.1935717  62.4587656  78.3567870
  68.6644311  68.2772689  78.4103645  69.1776193  68.9102681  78.9125355
  69.3145535  67.6773884  78.0447005  59.9334321  64.4203423  71.6235154
  59.0971633  64.7578109  71.9444428  59.7939091  64.2852403  70.6862291
  63.0198607  69.5459506  68.2467630  62.1125668  69.3148759  68.4458779
  63.5169639  68.7497125  68.4341611  65.9266686  78.2557013  71.1664316
  65.2528384  78.5588710  71.7749274  66.3132508  79.0586093  70.8169773
  65.1425142  65.7522144  80.6561985  64.2247704  65.9737091  80.4983673
  65.5585286  65.8268455  79.7973693  65.9260190  67.1513560  75.7864666
  66.6732009  67.6634957  75.4771788  66.1951779  66.8297613  76.6469059
  64.1986840  69.6472101  72.7691620  63.2898059  69.3631134  72.8664090
  64.2281924  70.0671179  71.9094927  69.4306108  73.2578690  76.5382787
  68.9768435  72.4169600  76.5947978  68.8000074  73.8940089  76.8757568
  68.3739027  64.1870676  77.7683455  67.6361784  63.6748062  78.0993698
  68.6265801  63.7471058  76.9566732  67.8739047  75.0955187  77.4732606
  68.1662021  75.6560244  76.7544971  68.3837667  75.3883748  78.2285765
  62.7471734  67.2600721  78.8701415  62.8020344  66.3074558  78.7943892
  61.9362936  67.4160160  79.3542714  63.8962928  71.1880844  70.1079699
  63.4582358  70.4716703  69.6485336  64.6373369  71.4156959  69.5464790
  62.8372672  75.8735538  78.5626059  62.7948851  76.0996384  77.6334591
  63.7535371  75.6398913  78.7111860  66.2838306  66.3419606  85.4606688
  66.6387693  66.5691079  86.3201154  66.9310437  66.6737982  84.8383943
  72.0136043  69.4638041  76.1656017  71.8753941  69.6539637  75.2377206
  71.6572262  70.2257424  76.6224068  60.1778169  63.4496137  82.2453029
  60.8177548  63.3084896  81.5475992  59.3455699  63.1630650  81.8691631
  72.0405422  71.5314568  81.1767289  72.4741929  71.4389858  82.0250343
  72.7537003  71.5072069  80.5387305  60.9538473  72.7498567  78.3588022
  61.7479071  72.2548887  78.1570597  60.2430165  72.2216430  77.9955727
  65.7733317  75.1316663  82.7100389  65.8270339  75.7007599  83.4778105
  64.9048099  75.3018548  82.3454426  58.6531711  64.8334219  84.1924840
  59.3254764  64.6251581  83.5437489  57.8261497  64.6356305  83.7530073
  72.9020972  71.5738269  83.7100174  73.0956862  72.4784080  83.9559449
  72.8021590  71.1145688  84.5438759  64.5557283  61.4596160  86.2090501
  63.9085198  62.1586109  86.1154978  65.3258298  61.8932304  86.5766750
  67.9636081  71.7245012  89.2841055  67.8121587  71.4955564  88.3671138
  67.9540760  72.6815613  89.2972400  64.7321417  69.2976925  84.2687321
  65.6613477  69.4488084  84.0956288  64.3112447  69.3860945  83.4135968
  63.5309749  73.3227589  82.0385859  63.3920834  72.9546373  82.9111797
  62.7424345  73.8375228  81.8669816  64.1257901  78.4236685  73.3811395
  64.3009656  77.9524729  74.1957018  63.4390689  79.0502452  73.6092656
  65.0814964  72.7009192  79.4274696  64.7464796  72.6609962  80.3232346
  64.5818910  72.0353908  78.9545107  59.0559208  68.1076822  84.9527278
  58.9179006  67.3757061  85.5538817  59.9664131  68.0185722  84.6711465
  68.0174156  70.0465226  69.7011756  67.4003326  69.3212054  69.6044809
  67.5490644  70.8074586  69.3578830  61.6841509  67.8196781  84.4410957
  62.3941127  67.1789973  84.3997576  61.6410817  68.0709676  85.3637138
  69.6728287  74.7564134  87.3617536  69.6140833  74.0723355  86.6948119
  70.0747806  75.4983124  86.9098162  60.3970442  64.8061999  86.2606597
  59.8607799  64.3552737  86.9128193  59.8087151  64.9407908  85.5177061
  58.6918986  81.5726048  80.1551255  58.9315584  82.2044572  80.8330274
  57.8488182  81.2214088  80.4416615  69.6745694  72.7203718  85.5931516
  68.7872473  72.3829640  85.7157915  70.2444246  71.9886750  85.8300282
  51.3274842  69.0527810  78.9174568  52.0145881  68.7389540  78.3295583
  51.1722970  69.9569175  78.6441819  63.2046848  77.3805171  82.5592759
  63.1317019  78.1860142  83.0712064  62.7624241  77.5797137  81.7340781
  62.9936627  76.6176941  76.0695581  62.2104149  77.1598621  76.1633805
  63.6929373  77.1350920  76.4689822  66.3033278  62.4271570  78.7129786
  66.8001977  61.6741533  78.3930857  65.5320259  62.4635887  78.1472996
  74.1563035  68.1311936  80.3548078  74.1452911  69.0136651  79.9842011
  73.2880414  67.7783487  80.1602615  65.6645531  77.2792005  84.7150918
  66.3773504  77.9139470  84.6426819  65.1735560  77.3755871  83.8990920
  67.3863058  71.1843257  76.2868210  66.4519337  71.3044720  76.1172914
  67.5639727  70.2815724  76.0228219  62.8868246  64.5688953  78.4401471
  62.5166034  64.0159994  79.1282376  63.3827339  63.9647087  77.8876471
  70.7735610  67.0260577  76.8218244  71.2396062  67.8588568  76.7478546
  71.2243110  66.5605558  77.5263502  60.7157445  75.0286448  85.5356489
  61.4166904  75.6622931  85.6885883  60.2452560  75.3701180  84.7752128
  68.8411841  73.3704398  73.8204396  69.1171685  73.2560993  74.7298270
  67.9716339  72.9721883  73.7816569  68.5158731  67.5831056  83.3609039
  67.8630181  67.8306963  82.7061492  68.8939111  66.7695194  83.0271516
  65.4765905  77.6190749  77.4637209  65.6588299  76.8012405  77.9264962
  66.2998891  77.8358441  77.0262099  65.8108070  76.5458934  74.7252258
  66.3395837  76.0351389  74.1122420  66.0736290  76.2301464  75.5897791
  64.5646304  68.3250867  89.8475076  63.8886941  68.2244996  90.5177451
  65.3873938  68.1690080  90.3111073  56.3125163  74.5622803  82.4687591
  56.8978600  73.8166491  82.6015496  56.1150001  74.8726760  83.3524255
  59.1663818  77.5974051  77.4850034  58.4974193  78.0820178  77.0014074
  59.0276688  77.8443271  78.3993412  50.9042818  67.1328403  81.1892035
  50.9426917  66.5991994  81.9829153  50.3983111  66.6063609  80.5703012
  63.3069087  79.6317794  84.0832692  63.8587395  79.7949416  84.8481777
  63.6475280  80.2222232  83.4112717  58.2833580  61.9792944  84.6854577
  58.3474906  62.8407775  84.2731975  58.2200700  61.3666946  83.9526935
  57.7585853  64.0516076  88.3327611  58.3857891  63.6693154  88.9465136
  56.9013771  63.8330278  88.6983304  68.1579961  74.4579052  89.9381347
  68.7019865  75.0709010  89.4436301  67.5766806  75.0158630  90.4548360
  66.4437474  77.5799770  81.0696374  66.3188613  76.7789510  80.5607320
  67.1016565  78.0745963  80.5810344  68.5072382  75.3808790  82.6975924
  67.5602718  75.2614141  82.6254251  68.8555156  74.4931288  82.7802186
  60.8671956  61.2702929  86.5214166  61.3906358  61.5165225  87.2840476
  60.6484289  62.1022963  86.1017304  65.5118816  75.1761506  78.8980277
  65.3643778  74.2478213  79.0787847  66.3372309  75.1981597  78.4137352
  59.3781060  63.8279573  74.7560769  59.7177133  64.3565494  74.0339377
  59.8253180  64.1659979  75.5319335  69.1152938  75.9990065  79.9845149
  70.0399485  75.7932926  79.8469601  68.9468241  75.7506466  80.8934491
  62.0724501  62.2116624  84.2063837  61.7321321  61.4124437  84.6084517
  61.3663507  62.5118335  83.6340670  62.7240973  59.2965936  82.6591160
  63.5467042  58.8226414  82.5370050  62.9679036  60.0756420  83.1589846
  61.3649207  62.3254195  72.9554062  62.0857570  62.7035447  72.4517778
  60.7414511  63.0443071  73.0589040  65.5080330  63.0299344  73.8912394
  65.7243944  63.9123981  73.5901222  65.0274397  62.6385557  73.1618036
  60.2479551  65.9885057  80.4683139  60.1024132  66.3025360  81.3607420
  59.7704755  66.6069957  79.9154037  62.1075934  62.9787605  80.5164028
  62.0937503  62.0828698  80.1796326  62.8248362  62.9858269  81.1502314
  63.9602065  63.4124945  82.5617156  63.7019843  64.3342016  82.5601486
  63.4287105  63.0155380  83.2517620  68.9048254  76.5175732  75.3407241
  69.0785131  75.9522155  74.5881093  69.3977145  77.3176627  75.1586731
  54.7225214  68.5290401  83.4070800  54.1778682  69.3050209  83.5391074
  55.6004563  68.8761206  83.2489921  61.5112830  61.8601985  75.7851598
  61.6328741  60.9318631  75.9842486  61.2214873  61.8740671  74.8729914
  74.7587645  69.2812155  76.9597541  75.2018791  68.5319480  76.5616664
  73.8814155  69.2722291  76.5771273  69.8923426  75.8342497  72.4404139
  70.5874331  76.4549189  72.6591454  70.2346576  74.9837848  72.7156517
  55.5091235  67.6560298  86.3000957  54.7672971  67.8042933  86.8865587
  55.1883980  67.9168563  85.4367706  71.7914849  73.2842202  73.9691470
  72.3166173  73.6229475  73.2440790  71.7037202  72.3489217  73.7854605
  63.4534898  77.1976276  86.0981347  63.7622025  76.9525423  86.9704046
  64.2510380  77.4022914  85.6100217  63.4755510  79.3514185  78.3286723
  63.0360500  78.8590564  79.0219580  64.2263627  78.8087153  78.0878798
  55.9547849  75.5425726  78.3311351  56.7805869  75.2429498  77.9509995
  55.6041901  74.7733349  78.7801140  60.9229382  74.8952194  80.4009025
  60.3009392  74.2322899  80.1011253  61.5934249  74.9213326  79.7182673
  54.1556454  73.4612053  79.2900285  53.3188362  73.0334227  79.1084286
  54.1280100  73.6544496  80.2271076  60.9953910  63.3733982  89.9941531
  61.0442065  64.2496105  89.6119300  61.5376424  62.8311376  89.4213174
  71.4808755  73.9175106  89.2742668  70.6904299  73.8999245  88.7347167
  71.2442110  74.4563399  90.0291705  71.6006631  70.7667572  86.5875396
  71.6504635  70.6017580  87.5290919  71.4920554  69.8994831  86.1973277
  60.4842889  73.4456118  73.8767485  60.6331010  74.1291582  73.2234158
  61.2909333  73.4261208  74.3916941  68.8910393  66.7498500  87.9034703
  69.7920256  66.6104965  87.6118701  68.9658367  66.9152955  88.8432881
  63.2253198  64.1265355  86.7487889  62.3556508  64.4198921  86.4770478
  63.4612679  64.7105800  87.4695153  73.1024827  73.1864514  86.8317418
  72.8109636  73.5494494  87.6680879  72.4896959  72.4731522  86.6530750
  74.3020510  70.7517393  79.3519988  75.1367401  71.1907197  79.5157549
  74.4379638  70.2756047  78.5328234  71.3512016  68.3097128  85.2997476
  71.8266137  68.5024775  84.4916327  70.4277581  68.3656314  85.0540860
  65.9292232  60.3444972  84.2653310  66.4474176  61.0805999  83.9399798
  65.5747365  60.6508965  85.1000069  63.9838295  75.9404248  71.3479233
  63.4112262  76.5594435  70.8949705  64.5571088  76.4903610  71.8819155
  70.0513685  65.1862888  83.5325782  71.0031107  65.2860986  83.5538006
  69.8817135  64.3941157  84.0423866  68.0728064  62.2718472  83.7185183
  67.4777996  62.5523484  83.0231671  67.7877761  62.7612372  84.4901924
  67.2035555  76.2241398  72.4787815  68.1366228  76.1586960  72.6820691
  67.1158767  77.0597665  72.0202348  69.8323571  75.5407269  69.4391763
  69.7537203  75.2067132  70.3327521  70.6533238  76.0329037  69.4383235
  72.5301762  68.4069008  82.6468081  72.4978082  67.4685009  82.8327765
  73.1402386  68.4853045  81.9133906  64.3685093  67.2765061  68.6895285
  65.3144198  67.1471269  68.7583703  63.9899338  66.5379723  69.1664713
  72.6796251  65.1980051  82.6926364  72.1635299  64.4138508  82.5056293
  73.5636199  64.8698768  82.8572884  78.3478312  69.4685015  81.7874118
  79.0781701  69.2070303  82.3481821  77.7385258  68.7313737  81.8276186
  76.4293609  67.6092877  82.3848569  75.7026773  67.4748842  81.7765061
  76.0140896  67.9169706  83.1905287  64.2523786  71.3282807  90.1495942
  65.1726795  71.5061406  90.3435989  64.2173369  70.3838852  89.9975642
  62.5528010  65.2015037  68.6250171  61.6459466  64.9048150  68.7012884
  62.8303991  64.9044855  67.7584457  57.2485858  69.2383842  82.7918723
  57.4671868  70.1700950  82.8106757  57.6611632  68.8791816  83.5773527
  62.1213724  64.8117048  92.1821472  62.0210451  65.7611405  92.1133563
  61.9035266  64.4835286  91.3097542  53.3394211  70.1424312  81.0442338
  52.6457682  69.7278265  80.5312293  54.0867202  70.1844849  80.4475757
  61.9844994  68.2414186  90.9986534  61.5012075  69.0414547  91.2050423
  62.0705933  68.2522131  90.0453978  57.9118331  72.1318721  83.0354968
  58.8661585  72.1002663  82.9684899  57.7130855  71.6709345  83.8505194
  58.5017713  70.7019837  85.6025765  59.3210602  71.1963916  85.6260603
  58.7754521  69.7851805  85.5743333  68.2584309  63.0930589  74.9653721
  67.3710165  63.3780240  74.7473916  68.6738299  62.9324353  74.1180998
  71.6098846  63.1177110  78.6808060  72.3859236  63.6073563  78.9532677
  70.8846980  63.5435165  79.1379930  74.0471404  63.8304730  79.7382001
  74.6415895  63.5900466  79.0275309  74.1197988  63.1111860  80.3655537
  56.2668560  77.6738341  80.0525166  56.1323028  76.9138741  79.4863164
  55.8500622  78.3979240  79.5853955  67.4027523  72.8575264  69.0601741
  68.1063373  73.0625267  69.6759397  66.6790172  73.4252026  69.3250824
  68.2325333  68.6085125  75.1804011  68.1760535  69.0653677  74.3411644
  68.7853676  67.8475810  75.0026854  72.0430139  64.3974857  76.0054131
  71.7867073  63.9971493  76.8362338  71.4183007  65.1118651  75.8804270
  76.3542477  67.1370930  78.5125422  75.7942035  67.2064120  79.2856984
  75.7485980  66.9611915  77.7924918  59.4237686  78.5707658  80.2643608
  59.3070070  79.5153090  80.1622299  58.6030132  78.2681219  80.6529408
  69.3114220  73.2957793  71.1100201  70.1459824  72.8638992  70.9277676
  69.1498563  73.1239807  72.0377095  68.9660113  69.7989907  72.4756540
  68.9108916  69.6334178  71.5344984  68.3406168  70.5065940  72.6318730
  53.7552628  65.0357971  86.3017963  54.4011491  64.5256925  86.7905188
  53.5469779  65.7726653  86.8761388  66.2806020  72.1038818  91.8010103
  67.1497179  72.2779471  91.4396738  65.8012771  72.9233235  91.6785832
  60.4492200  79.2235919  83.4799537  61.3519447  79.2559530  83.7966032
  60.2229570  78.2936370  83.4945873  62.2045802  77.9766906  80.1409615
  61.2541433  77.9768768  80.0273988  62.5078288  77.2299641  79.6245650
  58.0950119  62.1825588  90.3992977  58.9581580  61.8262393  90.6096301
  57.5215529  61.8439483  91.0868381  77.9398495  83.8127444  81.2055378
  78.5776905  83.6934192  80.5018718  77.8219338  84.7608288  81.2643330
  74.7488202  83.7654873  81.1416902  74.4106713  83.6495937  80.2537437
  75.6177970  83.3646038  81.1217909  70.6075017  85.6190349  77.1313793
  70.0439883  85.5280286  76.3630081  70.4927412  84.7990253  77.6116286
  75.2307985  84.9189724  87.1003108  75.2196625  84.5242523  86.2283612
  75.3928624  84.1855797  87.6936879  68.1539449  87.1141541  79.9698014
  68.9460741  86.7732365  79.5544313  68.3936100  87.2236516  80.8900167
  76.1874576  89.2861317  72.4428258  75.5362556  89.8715397  72.0562272
  76.9818939  89.8167512  72.5023296  70.1130203  86.3750454  72.8415393
  70.8861079  85.8279441  72.7028268  70.4655602  87.2394703  73.0529854
  71.9515246  87.7026836  86.0482292  71.6605112  88.6072467  85.9328958
  72.5872230  87.7443364  86.7626362  72.8771453  85.0803685  82.6383652
  73.4735025  84.8559707  81.9240615  72.9346424  84.3388430  83.2409099
  72.4496481  82.5343120  70.4733843  72.7022002  82.0124641  69.7117306
  71.5121040  82.3709265  70.5760526  77.4939764  81.5378898  78.2808586
  78.2802853  81.1198321  77.9299003  77.7578468  82.4424990  78.4490234
  77.6649841  86.9751749  72.9797243  77.0295674  87.0486375  73.6918147
  77.3347248  87.5645347  72.3016322  82.8948191  81.4754131  79.1841564
  83.6273363  80.9053348  79.4179394  82.1387547  81.0875732  79.6248070
  72.1692770  84.4371226  72.6758218  72.0529028  83.7616129  73.3439302
  72.2795030  83.9503600  71.8590371  74.5124311  83.8981373  76.3804907
  74.1482518  83.3711994  77.0917828  75.3691427  83.5079842  76.2071392
  80.4173611  75.1875706  83.6436173  80.0856936  76.0571117  83.4197388
  79.8219225  74.8711990  84.3230203  74.1529798  78.9271273  71.3766255
  74.3204200  79.7951509  71.7436726  73.9626967  79.0898554  70.4527545
  76.9105131  87.3888252  83.0432086  76.6105854  88.2913290  82.9347893
  76.5656190  87.1220435  83.8953239  70.3617612  83.8402048  79.0768790
  69.4368109  83.7078263  79.2846482  70.6102026  84.6196268  79.5738732
  80.3102275  79.9070792  80.7229523  79.4019152  79.8386200  80.4288284
  80.2589871  80.3842737  81.5511348  74.1319019  81.3828930  72.3612922
  74.0118644  81.8285981  73.1998402  73.4371607  81.7314248  71.8026460
  67.7226423  83.4835322  79.9112579  67.8518805  83.7369801  80.8251991
  67.0423875  84.0763030  79.5917234  71.8925911  94.1532572  76.0103053
  71.8149940  95.1040397  76.0891534  71.2887554  93.8078444  76.6677980
  74.3843141  81.3260437  88.6664420  73.6076475  81.8854357  88.6567285
  75.0233704  81.8117220  89.1879290  82.1763921  78.1087230  82.5007397
  81.5338301  78.4019763  81.8547191  81.6718850  77.9940150  83.3060594
  79.8304085  81.8550403  73.1893256  80.7421941  82.0877790  73.0140954
  79.3213732  82.4387448  72.6268335  72.6389513  84.1345891  88.2282387
  73.3804197  84.6730935  87.9517211  71.9326498  84.7612179  88.3853939
  78.1144852  86.2775031  86.8254549  78.5228209  85.8357442  86.0809181
  77.3922114  85.7027659  87.0788742  74.4675923  81.2147638  84.1988106
  75.3137118  81.6387052  84.3422755  74.4074560  80.5581262  84.8926669
  78.4373667  86.8376222  80.5806838  77.8082530  87.0021936  79.8782905
  78.0499329  87.2517831  81.3517802  82.3162899  87.7730660  77.9351201
  81.6313937  88.1529561  77.3848235  82.4006748  88.3825986  78.6683149
  77.6175368  78.8752006  85.8569279  77.3736300  79.6294067  85.3203555
  77.8935298  79.2537354  86.6916526  79.5713831  85.4190619  84.5346545
  79.7830726  86.0622379  83.8580926  79.5243579  84.5852935  84.0668475
  77.1740060  78.0308439  81.4383117  76.3124539  78.3289693  81.7299855
  77.2002494  78.2478838  80.5064150  73.9901629  86.5750630  77.8456923
  74.4539975  86.8538333  77.0561545  73.7258427  85.6734074  77.6630013
  70.8825710  86.1222111  80.7836686  71.4527067  86.5509380  80.1454170
  71.4733822  85.8404696  81.4820872  72.9270515  82.6973782  74.6546488
  73.6294558  83.1494826  75.1220414  72.5951144  82.0557601  75.2826381
  71.3750877  81.2885539  89.0297697  70.7449537  81.9701820  89.2633094
  71.2686964  81.1768620  88.0850835  66.6695849  80.9557335  79.9563621
  65.8794903  81.2114863  79.4803732  67.1607096  81.7705673  80.0615662
  80.6859659  88.2962574  82.7068902  81.5077102  87.8942761  82.4251584
  80.6822061  88.1930808  83.6585018  68.6210594  81.3201914  76.9147098
  67.8241758  81.4320608  77.4330594  68.3936187  81.6588566  76.0487989
  74.4516262  87.8446617  84.8629613  74.5160695  88.3067025  85.6987785
  73.7427186  87.2143982  84.9911923  64.9533552  81.2087825  82.3878612
  65.2041590  82.0934835  82.6536188  65.4893100  81.0292427  81.6153704
  88.7765652  84.6401323  79.0553874  88.0229360  84.0708721  78.8997878
  88.9113193  84.6063987  80.0024508  74.1664280  89.5114725  74.7308593
  74.0309954  90.3566261  75.1593441  74.7074092  89.7134003  73.9674527
  70.6531619  75.5906305  91.3922948  70.2598565  75.0372503  92.0670593
  71.4697760  75.9016883  91.7829466  67.6193677  87.0290163  75.3036518
  68.1318198  87.8233413  75.4542083  68.2716390  86.3316453  75.2370120
  69.4288562  90.1455919  77.3859271  69.6055190  91.0673884  77.1980255
  70.2245395  89.8314338  77.8153651  73.5699580  77.0064184  88.9843205
  74.3109294  77.6071337  88.9047667  73.8017503  76.2641822  88.4261247
  68.7140918  82.1920551  87.2621435  68.5994433  81.2905808  87.5628533
  67.8585436  82.4384248  86.9106251  70.5519877  91.6634093  83.3869614
  71.1027302  91.5351156  82.6146608  69.7131353  91.9628982  83.0364506
  74.3487048  87.9285221  87.7313845  74.8815385  87.1673509  87.5013153
  73.8201129  87.6358873  88.4737999  77.5156743  73.0345287  83.2607487
  77.1721013  73.9246928  83.1846597  77.8835706  72.8446944  82.3977072
  65.5842594  85.3578817  76.0796089  66.4217816  85.7675826  75.8629796
  65.7620862  84.4178259  76.0496283  77.4807026  83.0253898  71.7679922
  76.9653649  83.7958503  72.0068309  77.2084334  82.3519034  72.3912983
  75.0654137  77.8703599  76.8265160  74.2095733  77.4810449  76.6470799
  75.4781089  77.9495559  75.9664946  76.5953284  75.4049942  81.2256720
  76.0918079  75.3680077  80.4124525  76.8883890  76.3142685  81.2853376
  72.8396170  75.4888672  80.2322902  73.7049166  75.2931480  79.8728791
  72.9073678  75.2599023  81.1592258  82.4541300  85.7786253  73.7033095
  81.6770743  85.4397412  73.2588257  83.1332781  85.7838876  73.0288060
  77.2693329  80.8980990  73.5939703  76.9643465  81.2127139  74.4449846
  78.2223771  80.9762410  73.6367036  75.7139761  87.0571213  75.2432657
  75.1861123  86.3223973  74.9305894  75.2127264  87.8345890  74.9972625
  80.6932607  85.2520234  80.3599703  80.0356281  85.9419495  80.4479832
  81.4973006  85.6416666  80.7033689  70.4458489  77.7190880  77.6039268
  71.0202240  77.4966061  76.8712461  71.0329471  77.7879574  78.3567870
  79.5038066  83.6064606  78.4103645  80.0169948  84.2394598  78.9125355
  80.1539290  83.0065802  78.0447005  70.7728076  79.7495341  71.6235154
  69.9365388  80.0870027  71.9444428  70.6332845  79.6144320  70.6862291
  72.7481156  74.5932128  76.3314338  72.0945569  74.2781146  75.7070953
  72.7061630  73.9707869  77.0574161  73.8592361  84.8751424  68.2467630
  72.9519423  84.6440677  68.4458779  74.3563393  84.0789043  68.4341611
  76.7660440  93.5848931  71.1664316  76.0922139  93.8880627  71.7749274
  77.1526262  94.3878011  70.8169773  75.9818897  81.0814062  80.6561985
  75.0641458  81.3029009  80.4983673  76.3979040  81.1560372  79.7973693
  76.7653944  82.4805478  75.7864666  77.5125763  82.9926875  75.4771788
  77.0345534  82.1589530  76.6469059  75.0380595  84.9764018  72.7691620
  74.1291814  84.6923051  72.8664090  75.0675678  85.3963097  71.9094927
  80.2699862  88.5870608  76.5382787  79.8162189  87.7461518  76.5947978
  79.6393829  89.2232006  76.8757568  79.2132782  79.5162594  77.7683455
  78.4755538  79.0039980  78.0993698  79.4659555  79.0762976  76.9566732
  78.7132801  90.4247105  77.4732606  79.0055776  90.9852162  76.7544971
  79.2231422  90.7175666  78.2285765  79.3144409  72.2938846  78.3625224
  79.6203286  71.4336209  78.0751139  80.0397014  72.8856466  78.1624218
  65.6068765  82.6969533  76.7506822  65.4093165  82.1038893  76.0257889
  65.0515429  82.3921743  77.4682761  73.5865489  82.5892639  78.8701415
  73.6414098  81.6366475  78.7943892  72.7756691  82.7452078  79.3542714
  74.7356682  86.5172762  70.1079699  74.2976112  85.8008621  69.6485336
  75.4767123  86.7448877  69.5464790  71.5257849  81.2069699  76.6291794
  70.7125714  81.5063869  77.0356986  72.0216843  80.8125388  77.3466276
  73.6766426  91.2027456  78.5626059  73.6342605  91.4288302  77.6334591
  74.5929125  90.9690830  78.7111860  77.1232060  81.6711523  85.4606688
  77.4781448  81.8982996  86.3201154  77.7704191  82.0029900  84.8383943
  82.8529797  84.7929959  76.1656017  82.7147696  84.9831555  75.2377206
  82.4966016  85.5549342  76.6224068  71.0171923  78.7788054  82.2453029
  71.6571303  78.6376813  81.5475992  70.1849454  78.4922568  81.8691631
  82.8799177  86.8606486  81.1767289  83.3135683  86.7681775  82.0250343
  83.5930757  86.8363987  80.5387305  71.7932227  88.0790485  78.3588022
  72.5872826  87.5840805  78.1570597  71.0823920  87.5508348  77.9955727
  76.6127072  90.4608580  82.7100389  76.6664094  91.0299517  83.4778105
  75.7441853  90.6310465  82.3454426  68.1014991  82.2233566  74.4347774
  67.1712579  82.1618022  74.6517736  68.1972463  81.7009519  73.6384415
  68.0200540  78.7488379  77.0226016  68.2807357  79.6633713  76.9135176
  68.8417712  78.2812822  77.1722629  69.4925465  80.1626136  84.1924840
  70.1648518  79.9543499  83.5437489  68.6655252  79.9648222  83.7530073
  83.7414726  86.9030187  83.7100174  83.9350616  87.8075997  83.9559449
  83.6415345  86.4437606  84.5438759  75.3951037  76.7888077  86.2090501
  74.7478952  77.4878027  86.1154978  76.1652052  77.2224221  86.5766750
  75.5715171  84.6268842  84.2687321  76.5007231  84.7780002  84.0956288
  75.1506201  84.7152863  83.4135968  74.3703503  88.6519507  82.0385859
  74.2314589  88.2838291  82.9111797  73.5818099  89.1667146  81.8669816
  74.9651655  93.7528603  73.3811395  75.1403411  93.2816646  74.1957018
  74.2784443  94.3794369  73.6092656  75.9208718  88.0301109  79.4274696
  75.5858551  87.9901879  80.3232346  75.4212664  87.3645825  78.9545107
  69.8952962  83.4368739  84.9527278  69.7572760  82.7048978  85.5538817
  70.8057886  83.3477640  84.6711465  78.8567910  85.3757144  69.7011756
  78.2397081  84.6503972  69.6044809  78.3884398  86.1366504  69.3578830
  72.5235263  83.1488699  84.4410957  73.2334882  82.5081891  84.3997576
  72.4804571  83.4001594  85.3637138  71.2364197  80.1353917  86.2606597
  70.7001554  79.6844655  86.9128193  70.6480905  80.2699825  85.5177061
  69.5312740  96.9017966  80.1551255  69.7709339  97.5336490  80.8330274
  68.6881937  96.5506006  80.4416615  70.6466456  79.5942568  68.8233060
  69.7695922  79.4731369  68.4595307  71.1224209  78.8028646  68.5711949
  80.5139449  88.0495636  85.5931516  79.6266228  87.7121558  85.7157915
  81.0838000  87.3178667  85.8300282  62.1668596  84.3819728  78.9174568
  62.8539636  84.0681458  78.3295583  62.0116725  85.2861092  78.6441819
  66.9703318  79.2709924  83.3459591  66.8861507  78.6635594  82.6110001
  66.1486025  79.7618943  83.3469088  74.0440602  92.7097088  82.5592759
  73.9710774  93.5152060  83.0712064  73.6017995  92.9089054  81.7340781
  73.8330382  91.9468858  76.0695581  73.0497904  92.4890539  76.1633805
  74.5323127  92.4642838  76.4689822  77.1427032  77.7563488  78.7129786
  77.6395732  77.0033450  78.3930857  76.3714014  77.7927805  78.1472996
  84.9956789  83.4603853  80.3548078  84.9846666  84.3428569  79.9842011
  84.1274169  83.1075404  80.1602615  76.5039286  92.6083922  84.7150918
  77.2167258  93.2431387  84.6426819  76.0129314  92.7047788  83.8990920
  78.2256813  86.5135175  76.2868210  77.2913091  86.6336638  76.1172914
  78.4033481  85.6107642  76.0228219  73.7262001  79.8980871  78.4401471
  73.3559788  79.3451911  79.1282376  74.2221093  79.2939004  77.8876471
  81.6129364  82.3552494  76.8218244  82.0789816  83.1880486  76.7478546
  82.0636865  81.8897476  77.5263502  71.5551199  90.3578366  85.5356489
  72.2560659  90.9914849  85.6885883  71.0846314  90.6993097  84.7752128
  79.6805595  88.6996316  73.8204396  79.9565439  88.5852910  74.7298270
  78.8110094  88.3013801  73.7816569  79.5846027  74.7233081  80.8609145
  78.6709107  74.9537308  81.0291352  80.0139128  74.8071525  81.7123178
  79.3552485  82.9122973  83.3609039  78.7023936  83.1598881  82.7061492
  79.7332865  82.0987112  83.0271516  76.3159659  92.9482666  77.4637209
  76.4982054  92.1304322  77.9264962  77.1392645  93.1650359  77.0262099
  76.6501825  91.8750852  74.7252258  77.1789591  91.3643306  74.1122420
  76.9130044  91.5593382  75.5897791  75.4040058  83.6542784  89.8475076
  74.7280695  83.5536914  90.5177451  76.2267692  83.4981998  90.3111073
  67.1518917  89.8914721  82.4687591  67.7372354  89.1458409  82.6015496
  66.9543756  90.2018678  83.3524255  70.0057573  92.9265968  77.4850034
  69.3367948  93.4112096  77.0014074  69.8670442  93.1735189  78.3993412
  61.7436572  82.4620321  81.1892035  61.7820672  81.9283912  81.9829153
  61.2376865  81.9355527  80.5703012  74.1462841  94.9609712  84.0832692
  74.6981149  95.1241333  84.8481777  74.4869035  95.5514150  83.4112717
  69.1227334  77.3084862  84.6854577  69.1868661  78.1699693  84.2731975
  69.0594455  76.6958863  83.9526935  68.5979607  79.3807994  88.3327611
  69.2251646  78.9985071  88.9465136  67.7407526  79.1622196  88.6983304
  65.3745150  81.1884423  74.2645966  65.6698591  80.2795102  74.2113020
  64.4733186  81.1672163  73.9426968  77.2831229  92.9091687  81.0696374
  77.1582368  92.1081427  80.5607320  77.9410320  93.4037881  80.5810344
  68.9039397  79.2640420  80.2473515  68.1825983  79.8776388  80.1080988
  69.6932653  79.7998185  80.1690161  79.3466137  90.7100707  82.6975924
  78.3996472  90.5906059  82.6254251  79.6948910  89.8223205  82.7802186
  71.7065710  76.5994846  86.5214166  72.2300112  76.8457143  87.2840476
  71.4878044  77.4314881  86.1017304  67.1032991  78.8698521  74.3885291
  66.7745698  77.9895900  74.2060397  67.4572362  78.8146190  75.2761680
  76.3512570  90.5053424  78.8980277  76.2037533  89.5770131  79.0787847
  77.1766064  90.5273514  78.4137352  70.2174815  79.1571491  74.7560769
  70.5570887  79.6857412  74.0339377  70.6646935  79.4951897  75.5319335
  79.9546692  91.3281982  79.9845149  80.8793240  91.1224844  79.8469601
  79.7861995  91.0798384  80.8934491  72.9118255  77.5408541  84.2063837
  72.5715076  76.7416355  84.6084517  72.2057262  77.8410252  83.6340670
  73.5634727  74.6257854  82.6591160  74.3860796  74.1518332  82.5370050
  73.8072791  75.4048338  83.1589846  72.2042962  77.6546112  72.9554062
  72.9251324  78.0327365  72.4517778  71.5808266  78.3734989  73.0589040
  76.3474085  78.3591261  73.8912394  76.5637699  79.2415899  73.5901222
  75.8668152  77.9677475  73.1618036  71.0873306  81.3176975  80.4683139
  70.9417887  81.6317278  81.3607420  70.6098510  81.9361875  79.9154037
  72.9469689  78.3079523  80.5164028  72.9331258  77.4120616  80.1796326
  73.6642117  78.3150186  81.1502314  74.7995820  78.7416863  82.5617156
  74.5413597  79.6633933  82.5601486  74.2680860  78.3447297  83.2517620
  79.7442008  91.8467650  75.3407241  79.9178886  91.2814072  74.5881093
  80.2370900  92.6468545  75.1586731  65.5618968  83.8582319  83.4070800
  65.0172436  84.6342127  83.5391074  66.4398318  84.2053123  83.2489921
  72.3506585  77.1893903  75.7851598  72.4722496  76.2610549  75.9842486
  72.0608627  77.2032589  74.8729914  75.2197775  74.8748813  78.9218318
  75.2419472  74.9388146  77.9670298  75.6365834  74.0353322  79.1158824
  85.5981399  84.6104073  76.9597541  86.0412545  83.8611398  76.5616664
  84.7207910  84.6014209  76.5771273  80.7317181  91.1634414  72.4404139
  81.4268085  91.7841107  72.6591454  81.0740331  90.3129765  72.7156517
  66.3484990  82.9852215  86.3000957  65.6066726  83.1334851  86.8865587
  66.0277734  83.2460481  85.4367706  82.6308604  88.6134120  73.9691470
  83.1559928  88.9521393  73.2440790  82.5430956  87.6781135  73.7854605
  74.3149265  94.6806103  78.3286723  73.8754255  94.1882482  79.0219580
  75.0657382  94.1379071  78.0878798  66.7941604  90.8717644  78.3311351
  67.6199624  90.5721416  77.9509995  66.4435656  90.1025266  78.7801140
  71.7623137  90.2244112  80.4009025  71.1403146  89.5614817  80.1011253
  72.4328004  90.2505244  79.7182673  64.9950209  88.7903970  79.2900285
  64.1582117  88.3626145  79.1084286  64.9673854  88.9836414  80.2271076
  71.8347664  78.7025900  89.9941531  71.8835820  79.5788023  89.6119300
  72.3770178  78.1603293  89.4213174  71.3236644  88.7748035  73.8767485
  71.4724764  89.4583500  73.2234158  72.1303087  88.7553126  74.3916941
  79.7304147  82.0790418  87.9034703  80.6314010  81.9396883  87.6118701
  79.8052122  82.2444873  88.8432881  74.0646953  79.4557273  86.7487889
  73.1950262  79.7490839  86.4770478  74.3006433  80.0397718  87.4695153
  85.1414264  86.0809311  79.3519988  85.9761156  86.5199115  79.5157549
  85.2773393  85.6047964  78.5328234  82.1905770  83.6389046  85.2997476
  82.6659892  83.8316692  84.4916327  81.2671335  83.6948232  85.0540860
  69.0789277  84.8013213  74.8828554  68.8335319  83.8975543  75.0808764
  69.2485191  84.8030364  73.9408032  76.7685987  75.6736889  84.2653310
  77.2867930  76.4097916  83.9399798  76.4141119  75.9800883  85.1000069
  68.3484924  80.5341571  72.3814716  67.6554169  80.6085926  71.7254752
  68.1036676  79.7701914  72.9036233  77.0198581  72.0937172  79.7854206
  77.3000334  71.4260361  80.4114633  77.8049188  72.2866268  79.2728870
  74.8232049  91.2696166  71.3479233  74.2506016  91.8886353  70.8949705
  75.3964843  91.8195528  71.8819155  80.8907439  80.5154806  83.5325782
  81.8424862  80.6152904  83.5538006  80.7210889  79.7233075  84.0423866
  78.9121819  77.6010389  83.7185183  78.3171751  77.8815402  83.0231671
  78.6271515  78.0904290  84.4901924  78.0429309  91.5533316  72.4787815
  78.9759982  91.4878878  72.6820691  77.9552522  92.3889583  72.0202348
  80.6717326  90.8699186  69.4391763  80.5930957  90.5359050  70.3327521
  81.4926992  91.3620954  69.4383235  83.3695517  83.7360926  82.6468081
  83.3371837  82.7976926  82.8327765  83.9796141  83.8144962  81.9133906
  75.2078848  82.6056979  68.6895285  76.1537952  82.4763187  68.7583703
  74.8293093  81.8671641  69.1664713  83.5190005  80.5271969  82.6926364
  83.0029054  79.7430426  82.5056293  84.4029954  80.1990686  82.8572884
  81.1800732  74.2712985  78.6522177  80.9825553  73.9628073  79.5365509
  81.7900438  74.9974624  78.7820107  89.1872067  84.7976933  81.7874118
  89.9175455  84.5362221  82.3481821  88.5779012  84.0605654  81.8276186
  87.2687364  82.9384795  82.3848569  86.5420527  82.8040760  81.7765061
  86.8534651  83.2461624  83.1905287  73.3921765  80.5306955  68.6250171
  72.4853220  80.2340068  68.7012884  73.6697746  80.2336773  67.7584457
  64.3099705  81.8513318  79.0749217  63.9902490  80.9978627  78.7823591
  63.7633133  82.0661897  79.8307184  68.0879613  84.5675759  82.7918723
  68.3065623  85.4992867  82.8106757  68.5005387  84.2083734  83.5773527
  75.0083831  75.0743845  74.7794412  74.1984559  74.7290930  75.1549658
  75.6968248  74.7651389  75.3682023  76.9374379  74.1521892  76.4018708
  77.4905417  74.5717345  77.0608732  77.1744465  73.2257640  76.4441664
  72.9607478  80.1408965  92.1821472  72.8604205  81.0903322  92.1133563
  72.7429020  79.8127204  91.3097542  72.1620549  77.3893890  68.7662150
  73.0239713  77.7148789  69.0257967  72.3470894  76.6025386  68.2535215
  64.1787965  85.4716230  81.0442338  63.4851437  85.0570183  80.5312293
  64.9260956  85.5136766  80.4475757  80.3153186  76.2622417  75.9097373
  79.7351855  76.9207221  75.5275425  80.0489119  75.4399761  75.4984790
  78.7656752  75.6627474  78.1118693  79.2656531  75.7744009  77.3033012
  79.4092360  75.3588527  78.7519501  72.8238748  83.5706104  90.9986534
  72.3405830  84.3706464  91.2050423  72.9099687  83.5814049  90.0453978
  66.0924708  85.4034484  78.9208353  66.0695396  85.5022171  77.9690236
  66.4025344  86.2499635  79.2425519  68.7512086  87.4610639  83.0354968
  69.7055339  87.4294581  82.9684899  68.5524609  87.0001263  83.8505194
  69.3411468  86.0311755  85.6025765  70.1604357  86.5255833  85.6260603
  69.6148275  85.1143723  85.5743333  79.0978064  78.4222507  74.9653721
  78.2103919  78.7072158  74.7473916  79.5132053  78.2616270  74.1180998
  82.4492600  78.4469028  78.6808060  83.2252990  78.9365481  78.9532677
  81.7240734  78.8727082  79.1379930  84.8865159  79.1596647  79.7382001
  85.4809650  78.9192383  79.0275309  84.9591742  78.4403778  80.3655537
  67.1062314  93.0030258  80.0525166  66.9716782  92.2430659  79.4863164
  66.6894377  93.7271158  79.5853955  78.2421277  88.1867182  69.0601741
  78.9457128  88.3917184  69.6759397  77.5183926  88.7543944  69.3250824
  79.0719088  83.9377043  75.1804011  79.0154289  84.3945594  74.3411644
  79.6247430  83.1767728  75.0026854  82.8823894  79.7266775  76.0054131
  82.6260828  79.3263411  76.8362338  82.2576762  80.4410569  75.8804270
  87.1936231  82.4662848  78.5125422  86.6335789  82.5356037  79.2856984
  86.5879735  82.2903833  77.7924918  70.2631440  93.8999575  80.2643608
  70.1463824  94.8445008  80.1622299  69.4423887  93.5973137  80.6529408
  80.1507975  88.6249711  71.1100201  80.9853579  88.1930909  70.9277676
  79.9892318  88.4531725  72.0377095  79.8053867  85.1281824  72.4756540
  79.7502671  84.9626096  71.5344984  79.1799922  85.8357857  72.6318730
  64.5946382  80.3649889  86.3017963  65.2405246  79.8548843  86.7905188
  64.3863533  81.1018570  86.8761388  73.1149993  74.6289933  72.0541859
  73.1028662  75.5731773  72.2110130  74.0073414  74.4460079  71.7601320
  71.2885954  94.5527837  83.4799537  72.1913201  94.5851447  83.7966032
  71.0623325  93.6228288  83.4945873  73.0439556  93.3058824  80.1409615
  72.0935187  93.3060685  80.0273988  73.3472043  92.5591558  79.6245650
  76.9302112  71.2232710  76.3087796  76.1634508  70.6691197  76.4544478
  77.3412817  71.2954579  77.1701947  68.9343873  77.5117506  90.3992977
  69.7975335  77.1554311  90.6096301  68.3609284  77.1731401  91.0868381
  81.4468772 100.9482267  77.1313793  80.8833637 100.8572204  76.3630081
  81.3321167 100.1282171  77.6116286  80.9523958 101.7042371  72.8415393
  81.7254834 101.1571359  72.7028268  81.3049357 102.5686621  73.0529854
  83.2890236  97.8635038  70.4733843  83.5415756  97.3416559  69.7117306
  82.3514795  97.7001183  70.5760526  88.5043596 102.3043666  72.9797243
  87.8689429 102.3778293  73.6918147  88.1741002 102.8937265  72.3016322
  83.0086524  99.7663144  72.6758218  82.8922782  99.0908047  73.3439302
  83.1188784  99.2795517  71.8590371  85.3518065  99.2273291  76.3804907
  84.9876273  98.7003912  77.0917828  86.2085181  98.8371760  76.2071392
  84.9923552  94.2563190  71.3766255  85.1597955  95.1243427  71.7436726
  84.8020721  94.4190472  70.4527545  84.9712773  96.7120848  72.3612922
  84.8512398  97.1577899  73.1998402  84.2765362  97.0606166  71.8026460
  78.5620178  98.8127240  79.9112579  78.6912559  99.0661719  80.8251991
  77.8817629  99.4054948  79.5917234  90.6697839  97.1842321  73.1893256
  91.5815695  97.4169708  73.0140954  90.1607486  97.7679365  72.6268335
  83.7664270  98.0265700  74.6546488  84.4688313  98.4786744  75.1220414
  83.4344898  97.3849519  75.2826381  77.5089603  96.2849253  79.9563621
  76.7188657  96.5406781  79.4803732  78.0000851  97.0997590  80.0615662
  79.4604349  96.6493832  76.9147098  78.6635512  96.7612526  77.4330594
  79.2329941  96.9880484  76.0487989  75.7927306  96.5379743  82.3878612
  76.0435345  97.4226753  82.6536188  76.3286855  96.3584345  81.6153704
  78.4587432 102.3582081  75.3036518  78.9711952 103.1525331  75.4542083
  79.1110144 101.6608371  75.2370120  76.4236348 100.6870735  76.0796089
  77.2611570 101.0967743  75.8629796  76.6014616  99.7470177  76.0496283
  88.3200780  98.3545816  71.7679922  87.8047404  99.1250420  72.0068309
  88.0478089  97.6810952  72.3912983  85.9047891  93.1995516  76.8265160
  85.0489488  92.8102367  76.6470799  86.3174843  93.2787477  75.9664946
  87.4347038  90.7341860  81.2256720  86.9311834  90.6971995  80.4124525
  87.7277645  91.6434602  81.2853376  83.6789924  90.8180589  80.2322902
  84.5442921  90.6223398  79.8728791  83.7467433  90.5890941  81.1592258
  88.1087084  96.2272908  73.5939703  87.8037219  96.5419057  74.4449846
  89.0617526  96.3054328  73.6367036  86.5533515 102.3863131  75.2432657
  86.0254877 101.6515891  74.9305894  86.0521018 103.1637807  74.9972625
  81.2852243  93.0482797  77.6039268  81.8595995  92.8257979  76.8712461
  81.8723226  93.1171492  78.3567870  81.6121830  95.0787258  71.6235154
  80.7759142  95.4161945  71.9444428  81.4726600  94.9436238  70.6862291
  83.5874911  89.9224046  76.3314338  82.9339323  89.6073063  75.7070953
  83.5455385  89.2999787  77.0574161  84.6986116 100.2043341  68.2467630
  83.7913177  99.9732595  68.4458779  85.1957148  99.4080960  68.4341611
  87.6047699  97.8097395  75.7864666  88.3519518  98.3218793  75.4771788
  87.8739288  97.4881448  76.6469059  85.8774349 100.3055936  72.7691620
  84.9685568 100.0214969  72.8664090  85.9069433 100.7255015  71.9094927
  90.0526536  94.8454512  77.7683455  89.3149293  94.3331898  78.0993698
  90.3053310  94.4054893  76.9566732  90.1538163  87.6230764  78.3625224
  90.4597040  86.7628127  78.0751139  90.8790768  88.2148384  78.1624218
  76.4462519  98.0261450  76.7506822  76.2486919  97.4330811  76.0257889
  75.8909183  97.7213660  77.4682761  84.4259243  97.9184557  78.8701415
  84.4807853  96.9658393  78.7943892  83.6150445  98.0743996  79.3542714
  85.5750437 101.8464680  70.1079699  85.1369867 101.1300539  69.6485336
  86.3160878 102.0740795  69.5464790  82.3651603  96.5361616  76.6291794
  81.5519469  96.8355787  77.0356986  82.8610597  96.1417305  77.3466276
  81.8565678  94.1079972  82.2453029  82.4965057  93.9668731  81.5475992
  81.0243208  93.8214485  81.8691631  78.9408745  97.5525484  74.4347774
  78.0106333  97.4909940  74.6517736  79.0366217  97.0301437  73.6384415
  78.8594294  94.0780297  77.0226016  79.1201112  94.9925630  76.9135176
  79.6811467  93.6104740  77.1722629  89.6961665 100.7049061  69.7011756
  89.0790835  99.9795890  69.6044809  89.2278153 101.4658422  69.3578830
  81.4860210  94.9234486  68.8233060  80.6089677  94.8023286  68.4595307
  81.9617963  94.1320564  68.5711949  73.0062351  99.7111645  78.9174568
  73.6933390  99.3973375  78.3295583  72.8510479 100.6153010  78.6441819
  77.8097073  94.6001842  83.3459591  77.7255261  93.9927512  82.6110001
  76.9879779  95.0910860  83.3469088  87.9820787  93.0855406  78.7129786
  88.4789486  92.3325368  78.3930857  87.2107768  93.1219722  78.1472996
  84.5655755  95.2272789  78.4401471  84.1953543  94.6743829  79.1282376
  85.0614848  94.6230922  77.8876471  72.5830327  97.7912239  81.1892035
  72.6214426  97.2575829  81.9829153  72.0770619  97.2647444  80.5703012
  76.2138904  96.5176341  74.2645966  76.5092345  95.6087019  74.2113020
  75.3126940  96.4964080  73.9426968  79.7433151  94.5932338  80.2473515
  79.0219737  95.2068305  80.1080988  80.5326407  95.1290102  80.1690161
  77.9426746  94.1990439  74.3885291  77.6139452  93.3187818  74.2060397
  78.2966117  94.1438107  75.2761680  81.0568569  94.4863408  74.7560769
  81.3964642  95.0149330  74.0339377  81.5040689  94.8243815  75.5319335
  84.4028482  89.9549772  82.6591160  85.2254551  89.4810250  82.5370050
  84.6466545  90.7340255  83.1589846  83.0436716  92.9838030  72.9554062
  83.7645079  93.3619283  72.4517778  82.4202020  93.7026907  73.0589040
  87.1867839  93.6883179  73.8912394  87.4031453  94.5707817  73.5901222
  86.7061906  93.2969392  73.1618036  83.7863443  93.6371440  80.5164028
  83.7725012  92.7412533  80.1796326  84.5035871  93.6442104  81.1502314
  83.1900339  92.5185820  75.7851598  83.3116250  91.5902467  75.9842486
  82.9002382  92.5324506  74.8729914  86.0591530  90.2040731  78.9218318
  86.0813226  90.2680064  77.9670298  86.4759589  89.3645240  79.1158824
  82.1630398 104.1039953  73.8767485  82.3118519 104.7875418  73.2234158
  82.9696842 104.0845043  74.3916941  79.9183031 100.1305131  74.8828554
  79.6729073  99.2267461  75.0808764  80.0878946 100.1322281  73.9408032
  79.1878679  95.8633488  72.3814716  78.4947924  95.9377843  71.7254752
  78.9430431  95.0993832  72.9036233  87.8592335  87.4229090  79.7854206
  88.1394089  86.7552279  80.4114633  88.6442942  87.6158185  79.2728870
  86.0472602  97.9348896  68.6895285  86.9931707  97.8055104  68.7583703
  85.6686847  97.1963558  69.1664713  84.2315519  95.8598873  68.6250171
  83.3246975  95.5631985  68.7012884  84.5091500  95.5628691  67.7584457
  75.1493460  97.1805236  79.0749217  74.8296244  96.3270544  78.7823591
  74.6026888  97.3953814  79.8307184  85.8477585  90.4035762  74.7794412
  85.0378313  90.0582847  75.1549658  86.5362002  90.0943306  75.3682023
  87.7768133  89.4813809  76.4018708  88.3299172  89.9009263  77.0608732
  88.0138220  88.5549557  76.4441664  83.0014304  92.7185808  68.7662150
  83.8633468  93.0440706  69.0257967  83.1864648  91.9317304  68.2535215
  75.0181720 100.8008148  81.0442338  74.3245191 100.3862100  80.5312293
  75.7654711 100.8428684  80.4475757  91.1546940  91.5914334  75.9097373
  90.5745610  92.2499138  75.5275425  90.8882873  90.7691679  75.4984790
  89.6050507  90.9919392  78.1118693  90.1050285  91.1035927  77.3033012
  90.2486115  90.6880445  78.7519501  76.9318462 100.7326401  78.9208353
  76.9089150 100.8314089  77.9690236  77.2419099 101.5791552  79.2425519
  89.9371818  93.7514425  74.9653721  89.0497674  94.0364075  74.7473916
  90.3525808  93.5908188  74.1180998  89.9112842  99.2668961  75.1804011
  89.8548044  99.7237512  74.3411644  90.4641185  98.5059645  75.0026854
  93.7217648  95.0558693  76.0054131  93.4654582  94.6555328  76.8362338
  93.0970516  95.7702487  75.8804270  90.6447622 100.4573742  72.4756540
  90.5896425 100.2918013  71.5344984  90.0193677 101.1649775  72.6318730
  83.9543747  89.9581851  72.0541859  83.9422417  90.9023691  72.2110130
  84.8467169  89.7751996  71.7601320  87.7695866  86.5524628  76.3087796
  87.0028262  85.9983114  76.4544478  88.1806571  86.6246496  77.1701947
  34.5823479  -0.4978104  67.9300684  35.2201889  -0.6171356  67.2264024
  34.4644322   0.4502740  67.9888637  31.3913185  -0.5450676  67.8662209
  31.0531697  -0.6609611  66.9782744  32.2602953  -0.9459510  67.8463215
  27.2500001   1.3084801  63.8559100  26.6864866   1.2174738  63.0875388
  27.1352396   0.4884705  64.3361593  31.8732968   0.6084176  73.8248415
  31.8621609   0.2136974  72.9528918  32.0353608  -0.1249751  74.4182186
  24.7964433   2.8035992  66.6943320  25.5885725   2.4626817  66.2789620
  25.0361083   2.9130967  67.6145474  32.8299559   4.9755769  59.1673565
  32.1787539   5.5609849  58.7807579  33.6243922   5.5061963  59.2268602
  26.7555187   2.0644906  59.5660699  27.5286063   1.5173893  59.4273575
  27.1080585   2.9289155  59.7775161  28.5940229   3.3921288  72.7727599
  28.3030095   4.2966919  72.6574265  29.2297214   3.4337816  73.4871668
  29.5196436   0.7698136  69.3628958  30.1160008   0.5454159  68.6485921
  29.5771408   0.0282882  69.9654406  29.0921464  -1.7762428  57.1979149
  29.3446985  -2.2980907  56.4362612  28.1546024  -1.9396283  57.3005833
  34.1364747  -2.7726650  65.0053892  34.9227836  -3.1907227  64.6544309
  34.4003452  -1.8680558  65.1735541  34.3074825   2.6646200  59.7042549
  33.6720658   2.7380827  60.4163454  33.9772231   3.2539799  59.0261628
  39.5373174  -2.8351417  65.9086871  40.2698346  -3.4052200  66.1424700
  38.7812530  -3.2229816  66.3493377  28.8117753   0.1265678  59.4003524
  28.6954011  -0.5489419  60.0684608  28.9220013  -0.3601948  58.5835677
  31.1549294  -0.4124175  63.1050213  30.7907501  -0.9393554  63.8163135
  32.0116410  -0.8025706  62.9316699  30.7954781  -5.3834275  58.1011562
  30.9629183  -4.5154039  58.4682033  30.6051950  -5.2206994  57.1772851
  33.5530114   3.0782703  69.7677392  33.2530837   3.9807742  69.6593200
  33.2081174   2.8114887  70.6198545  27.0042596  -0.4703500  65.8014097
  26.0793092  -0.6027286  66.0091788  27.2527009   0.3090720  66.2984039
  36.9527258  -4.4034756  67.4474830  36.0444135  -4.4719348  67.1533591
  36.9014854  -3.9262811  68.2756655  30.7744002  -2.9276618  59.0858229
  30.6543627  -2.4819567  59.9243709  30.0796590  -2.5791300  58.5271767
  24.3651407  -0.8270226  66.6357886  24.4943788  -0.5735747  67.5497297
  23.6848858  -0.2342518  66.3162541  28.5350894   9.8427024  62.7348360
  28.4574924  10.7934849  62.8136841  27.9312538   9.4972896  63.3923286
  31.0268124  -2.9845111  75.3909727  30.2501458  -2.4251191  75.3812592
  31.6658687  -2.4988328  75.9124597  38.8188904  -6.2018318  69.2252704
  38.1763285  -5.9085785  68.5792498  38.3143833  -6.3165398  70.0305900
  36.4729068  -2.4555145  59.9138563  37.3846924  -2.2227758  59.7386260
  35.9638715  -1.8718101  59.3513641  29.2814496  -0.1759657  74.9527694
  30.0229181   0.3625387  74.6762517  28.5751482   0.4506631  75.1099246
  34.7569836   1.9669483  73.5499855  35.1653192   1.5251894  72.8054488
  34.0347097   1.3922111  73.8034048  31.1100906  -3.0957910  70.9233412
  31.9562101  -2.6718497  71.0668061  31.0499543  -3.7524286  71.6171975
  35.0798650   2.5270674  67.3052144  34.4507513   2.6916388  66.6028212
  34.6924312   2.9412283  68.0763108  38.9587882   3.4625112  64.6596508
  38.2738920   3.8424013  64.1093541  39.0431732   4.0720438  65.3928456
  34.2600351  -5.4353542  72.5814586  34.0161283  -4.6811481  72.0448862
  34.5360282  -5.0568194  73.4161833  36.2138814   1.1085071  71.2591852
  36.4255709   1.7516830  70.5826233  36.1668562   0.2747387  70.7913782
  33.8165043  -6.2797109  68.1628424  32.9549522  -5.9815855  68.4545161
  33.8427478  -6.0626710  67.2309456  30.6326612   2.2645082  64.5702229
  31.0964958   2.5432785  63.7806852  30.3683410   1.3628526  64.3875320
  27.5250693   1.8116563  67.5081993  28.0952050   2.2403832  66.8699477
  28.1158805   1.5299148  68.2066178  29.5695498  -1.6131766  61.3791794
  30.2719542  -1.1610722  61.8465721  29.2376127  -2.2547947  62.0071688
  37.3284642   3.9857026  69.4314209  38.1502086   3.5837213  69.1496891
  37.3247045   3.8825260  70.3830325  31.0941245   3.5341069  71.5874919
  31.1585678   3.9961477  72.4233091  30.3852169   2.9038434  71.7157229
  45.4190635   0.3295774  65.7799180  44.6654343  -0.2396827  65.6243185
  45.5538176   0.2958439  66.7269815  30.8089263   5.2009177  61.4553900
  30.6734938   6.0460713  61.8838748  31.3499075   5.4028454  60.6919833
  24.2618660   2.7184615  62.0281825  24.7743181   3.5127865  62.1787389
  24.9141373   2.0210905  61.9615426  26.0713545   5.8350371  64.1104578
  26.2480173   6.7568336  63.9225562  26.8670379   5.5208790  64.5398958
  32.4357739   5.8232743  75.5854242  31.9921594   5.0369122  75.2675146
  33.0974953   6.0111894  74.9198133  27.1944861   7.3528545  70.1114920
  27.7452286   7.2245608  69.3391914  26.3556336   7.6523434  69.7609813
  34.5338977   6.1035543  73.6135643  34.5157453   6.9244424  73.1215912
  35.4558897   5.9789618  73.8385784  30.9912032   3.6179673  74.4559151
  31.5240368   2.8567961  74.2258459  30.4626113   3.3253325  75.1983306
  34.1232009  -1.2851650  58.4925228  33.6078633  -0.5147046  58.7313616
  33.8509318  -1.9586514  59.1158290  39.0966283   1.4680704  60.4278402
  38.3195726   1.1291864  59.9833564  39.7757764   1.4733328  59.7533367
  33.9118312  -3.4124558  60.3185009  33.6068448  -3.0978409  61.1695153
  34.8648755  -3.3343138  60.3612342  32.3564744   2.7465665  61.9677963
  31.8286106   2.0118425  61.6551201  31.8552247   3.5240342  61.7217932
  37.3357590   0.9414686  67.0845010  36.6781265   1.6313947  67.1725138
  38.1397990   1.3311118  67.4278996  36.1463049  -0.7040942  65.1348951
  36.6594931  -0.0710950  65.6370661  36.7964273  -1.3039746  64.7692312
  30.5017344   0.5645875  54.9712936  29.5944406   0.3335129  55.1704085
  30.9988376  -0.2316505  55.1586918  33.4085423   9.2743383  57.8909623
  32.7347122   9.5775079  58.4994580  33.7951245  10.0772463  57.5415080
  32.6243880  -3.2291486  67.3807292  31.7066441  -3.0076539  67.2228980
  33.0404024  -3.1545176  66.5218999  33.4078928  -1.8300070  62.5109972
  34.1550747  -1.3178673  62.2017094  33.6770517  -2.1516018  63.3714366
  31.6805578   0.6658470  59.4936927  30.7716797   0.3817503  59.5909396
  31.7100662   1.0857549  58.6340233  36.9124845   4.2765060  63.2628094
  36.4587172   3.4355970  63.3193285  36.2818812   4.9126458  63.6002874
  35.8557765  -4.7942954  64.4928762  35.1180522  -5.3065568  64.8239004
  36.1084538  -5.2342573  63.6812038  35.3557785   6.1141556  64.1977912
  35.6480759   6.6746614  63.4790278  35.8656405   6.4070117  64.9531071
  30.2290472  -1.7212909  65.5946722  30.2839082  -2.6739073  65.5189198
  29.4181674  -1.5653470  66.0788020  31.3781666   2.2067214  56.8325005
  30.9401096   1.4903073  56.3730642  32.1192107   2.4343329  56.2710097
  28.1682832  -3.1035849  63.3537101  27.3550697  -2.8041679  63.7602293
  28.6641826  -3.4980161  64.0711583  30.3191410   6.8921908  65.2871365
  30.2767589   7.1182754  64.3579897  31.2354109   6.6585282  65.4357167
  33.7657044  -2.6394025  72.1851995  34.1206431  -2.4122552  73.0446460
  34.4129175  -2.3075648  71.5629250  39.4954780   0.4824411  62.8901324
  39.3572679   0.6726007  61.9622513  39.1390999   1.2443794  63.3469375
  39.5224160   2.5500938  67.9012595  39.9560667   2.4576227  68.7495649
  40.2355741   2.5258438  67.2632611  28.4357211   3.7684937  65.0833328
  29.2297809   3.2735257  64.8815903  27.7248903   3.2402800  64.7201034
  33.2552055   6.1503032  69.4345696  33.3089077   6.7193968  70.2023412
  32.3866836   6.3204917  69.0699733  40.3839710   2.5924639  70.4345481
  40.5775600   3.4970449  70.6804756  40.2840328   2.1332058  71.2684066
  35.4454818   2.7431381  76.0086361  35.2940325   2.5141933  75.0916445
  35.4359498   3.7001983  76.0217706  32.2140155   0.3163294  70.9932628
  33.1432215   0.4674454  70.8201595  31.7931185   0.4047315  70.1381274
  31.0128487   4.3413959  68.7631165  30.8739572   3.9732743  69.6357103
  30.2243083   4.8561598  68.5915123  31.6076638   9.4423055  60.1056702
  31.7828394   8.9711098  60.9202324  30.9209427  10.0688821  60.3337963
  32.5633702   3.7195561  66.1520003  32.2283534   3.6796331  67.0477653
  32.0637647   3.0540277  65.6790413  26.5377946  -0.8736809  71.6772584
  26.3997744  -1.6056570  72.2784123  27.4482869  -0.9627909  71.3956772
  35.4992893   1.0651596  56.4257063  34.8822064   0.3398424  56.3290115
  35.0309382   1.8260956  56.0824137  29.1660246  -1.1616849  71.1656264
  29.8759865  -1.8023657  71.1242882  29.1229554  -0.9103955  72.0882445
  37.1547025   5.7750504  74.0862843  37.0959571   5.0909724  73.4193426
  37.5566543   6.5169494  73.6343469  26.1737724  12.5912418  66.8796562
  26.4134322  13.2230942  67.5575581  25.3306920  12.2400458  67.1661921
  37.1564432   3.7390088  72.3176823  36.2691211   3.4016010  72.4403222
  37.7262983   3.0073119  72.5545588  30.6865586   8.3991540  69.2838066
  30.6135757   9.2046512  69.7957371  30.2442979   8.5983506  68.4586087
  30.4755365   7.6363310  62.7940888  29.6922887   8.1784990  62.8879112
  31.1748110   8.1537290  63.1935129  33.7852015  -6.5542060  65.4375093
  34.2820715  -7.3072098  65.1176163  33.0138997  -6.5177744  64.8718302
  41.6381773  -0.8501695  67.0793384  41.6271649   0.0323021  66.7087317
  40.7699152  -1.2030144  66.8847921  33.1464269   8.2978374  71.4396225
  33.8592241   8.9325839  71.3672126  32.6554298   8.3942240  70.6236226
  34.8681796   2.2029627  63.0113516  33.9338075   2.3231089  62.8418221
  35.0458465   1.3002094  62.7473526  38.2554347  -1.9553054  63.5463550
  38.7214800  -1.1225062  63.4723853  38.7061848  -2.4208072  64.2508809
  28.1976183   6.0472818  72.2601795  28.8985642   6.6809301  72.4131190
  27.7271298   6.3887549  71.4997435  36.3230579   4.3890768  60.5449702
  36.5990422   4.2747362  61.4543577  35.4535077   3.9908252  60.5061876
  35.9977469  -1.3982575  70.0854346  35.3448919  -1.1506667  69.4306799
  36.3757849  -2.2118437  69.7516823  32.9584643   8.6377118  64.1882516
  33.1407037   7.8198774  64.6510268  33.7817629   8.8544811  63.7507406
  33.2926808   7.5645304  61.4497565  33.8214574   7.0537758  60.8367727
  33.5555028   7.2487834  62.3143098  32.0465042  -0.6562764  76.5720383
  31.3705679  -0.7568634  77.2422758  32.8692676  -0.8123550  77.0356380
  23.7943901   5.5809173  69.1932898  24.3797338   4.8352861  69.3260802
  23.5968739   5.8913130  70.0769562  26.6482556   8.6160420  64.2095341
  25.9792931   9.1006548  63.7259381  26.5095426   8.8629641  65.1238719
  30.7887825  10.6504164  70.8077999  31.3406133  10.8135785  71.5727084
  31.1294018  11.2408602  70.1358024  35.6398699   5.4765421  76.6626653
  36.1838603   6.0895379  76.1681608  35.0585544   6.0345000  77.1793666
  33.9256212   8.5986139  67.7941681  33.8007351   7.7975879  67.2852627
  34.5835303   9.0932333  67.3055651  35.9891120   6.3995159  69.4221231
  35.0421456   6.2800511  69.3499558  36.3373893   5.5117657  69.5047493
  32.9937554   6.1947876  65.6225583  32.8462516   5.2664583  65.8033153
  33.8191047   6.2167966  65.1382659  36.5971675   7.0176434  66.7090456
  37.5218223   6.8119296  66.5714907  36.4286979   6.7692835  67.6179798
  32.9899068  -5.9514287  60.6157701  33.2062682  -5.0689649  60.3146529
  32.5093135  -6.3428073  59.8863343  27.7298289  -2.9928574  67.1928445
  27.5842870  -2.6788271  68.0852727  27.2523493  -2.3743673  66.6399344
  36.3866992   7.5362102  62.0652548  36.5603869   6.9708524  61.3126400
  36.8795883   8.3362997  61.8832038  42.2406383   0.2998525  63.6842847
  42.6837529  -0.4494150  63.2861971  41.3632893   0.2908661  63.3016579
  37.3742164   6.8528866  59.1649446  38.0693069   7.4735559  59.3836760
  37.7165314   6.0024217  59.4401824  39.2733587   4.3028572  60.6936777
  39.7984911   4.6415844  59.9686097  39.1855940   3.3675587  60.5099911
  30.9353636   8.2162645  72.8226653  31.2440762   7.9711792  73.6949353
  31.7329118   8.4209284  72.3345523  30.9574248  10.3700555  65.0532030
  30.5179238   9.8776934  65.7464886  31.7082365   9.8273523  64.8124105
  23.4366587   6.5612096  65.0556658  24.2624607   6.2615868  64.6755301
  23.0860639   5.7919718  65.5046447  28.4048120   5.9138564  67.1254331
  27.7828129   5.2509269  66.8256559  29.0752987   5.9399696  66.4427979
  21.6375192   4.4798422  66.0145591  20.8007100   4.0520597  65.8329593
  21.6098837   4.6730866  66.9516383  38.9627493   4.9361475  75.9987975
  38.1723037   4.9185614  75.4592474  38.7260848   5.4749769  76.7537011
  39.0825368   1.7853942  73.3120703  39.1323373   1.6203949  74.2536226
  38.9739292   0.9181201  72.9218584  27.9661627   4.4642487  60.6012792
  28.1149747   5.1477952  59.9479465  28.7728070   4.4447577  61.1162248
  36.3729131  -2.2315130  74.6280010  37.2738993  -2.3708665  74.3364008
  36.4477105  -2.0660675  75.5678187  30.7071936  -4.8548276  73.4733196
  29.8375245  -4.5614709  73.2015785  30.9431416  -4.2707831  74.1940460
  40.5843565   4.2050883  73.5562725  40.2928373   4.5680864  74.3926186
  39.9715696   3.4917891  73.3776057  41.7839247   1.7703763  66.0765295
  42.6186139   2.2093567  66.2402855  41.9198376   1.2942416  65.2573541
  38.8330753  -0.6716502  72.0242783  39.3084875  -0.4788856  71.2161634
  37.9096319  -0.6157316  71.7786166  25.7214260   0.4907665  61.6073861
  25.4760302  -0.4130005  61.8054071  25.8910175   0.4924815  60.6653339
  31.4657033   6.9590618  58.0724539  30.8931000   7.5780805  57.6195011
  32.0389826   7.5089980  58.6064461  37.5332422  -3.7950742  70.2571088
  38.4849845  -3.6952644  70.2783312  37.3635873  -4.5872474  70.7669173
  35.5546802  -6.7095159  70.4430489  34.9596734  -6.4290146  69.7476978
  35.2696499  -6.2201258  71.2147230  34.6854292   7.2427768  59.2033122
  35.6184965   7.1773330  59.4065997  34.5977505   8.0784035  58.7447654
  37.3142309   6.5593638  56.1637069  37.2355940   6.2253502  57.0572827
  38.1351976   7.0515406  56.1628542  40.0120500  -0.5744622  69.3713388
  39.9796820  -1.5128622  69.5573072  40.6221124  -0.4960586  68.6379213
  31.8503831  -1.7048569  55.4140592  32.7962936  -1.8342361  55.4829010
  31.4718076  -2.4433908  55.8910020  40.1614989  -3.7833579  69.4171671
  39.6454037  -4.5675122  69.2301600  41.0454937  -4.1114862  69.5818191
  45.8297050   0.4871384  68.5119425  46.5600438   0.2256673  69.0727128
  45.2203995  -0.2499894  68.5521493  43.9112347  -1.3720753  69.1093876
  43.1845511  -1.5064788  68.5010367  43.4959634  -1.0643924  69.9150594
  31.7342524   2.3469177  76.8741249  32.6545533   2.5247776  77.0681295
  31.6992107   1.4025222  76.7220948  30.0346748  -3.7798593  55.3495477
  29.1278204  -4.0765480  55.4258191  30.3122729  -4.0768775  54.4829763
  24.7304596   0.2570211  69.5164030  24.9490606   1.1887319  69.5352064
  25.1430370  -0.1021814  70.3018834  22.7349691   1.0928936  65.6453660
  22.7120379   1.1916623  64.6935543  23.0450328   1.9394086  65.9670826
  25.3937069   3.1505091  69.7600274  26.3480322   3.1189033  69.6930206
  25.1949593   2.6895714  70.5750500  25.9836451   1.7206207  72.3271072
  26.8029340   2.2150285  72.3505909  26.2573259   0.8038175  72.2988640
  35.7403047  -5.8883041  61.6899028  34.8528902  -5.6033390  61.4719222
  36.1557036  -6.0489278  60.8426305  39.0917583  -5.8636520  65.4053367
  39.8677974  -5.3740068  65.6777984  38.3665718  -5.4378466  65.8625236
  41.5290142  -5.1508901  66.4627307  42.1234633  -5.3913165  65.7520616
  41.6016726  -5.8701770  67.0900844  23.7487298   8.6924710  66.7770472
  23.6141766   7.9325111  66.2108470  23.3319360   9.4165610  66.3099261
  34.8846261   3.8761634  55.7847048  35.5882111   4.0811636  56.4004703
  34.1608910   4.4438396  56.0496131  35.7144071  -0.3728505  61.9049318
  35.6579272   0.0840046  61.0656950  36.2672413  -1.1337820  61.7272161
  39.5248877  -4.5838773  62.7299437  39.2685811  -4.9842138  63.5607645
  38.9001745  -3.8694979  62.6049576  43.8361215  -1.8442700  65.2370729
  43.2760773  -1.7749511  66.0102291  43.2304718  -2.0201715  64.5170225
  26.9056424   9.5894027  66.9888915  26.7888808  10.5339460  66.8867605
  26.0848870   9.2867589  67.3774714  36.7932958   4.3144163  57.8345508
  37.6278562   3.8825361  57.6522982  36.6317301   4.1426177  58.7622402
  36.4478850   0.8176276  59.2001847  36.3927654   0.6520548  58.2590291
  35.8224906   1.5252309  59.3564037  33.7624758   3.1225188  78.5255410
  34.6315917   3.2965840  78.1642045  33.2831509   3.9419605  78.4031139
  27.9310938  10.2422289  70.2044843  28.8338184  10.2745899  70.5211338
  27.7048308   9.3122740  70.2191179  29.6864540   8.9953276  66.8654922
  28.7360171   8.9955137  66.7519294  29.9897026   8.2486010  66.3490957
  45.4217233  14.8313814  67.9300684  46.0595643  14.7120561  67.2264024
  45.3038076  15.7794658  67.9888637  42.2306940  14.7841242  67.8662209
  41.8925451  14.6682307  66.9782744  43.0996708  14.3832407  67.8463215
  38.0893755  16.6376719  63.8559100  37.5258620  16.5466655  63.0875388
  37.9746150  15.8176623  64.3361593  42.7126723  15.9376094  73.8248415
  42.7015363  15.5428892  72.9528918  42.8747362  15.2042166  74.4182186
  35.6358187  18.1327910  66.6943320  36.4279479  17.7918735  66.2789620
  35.8754837  18.2422885  67.6145474  43.6693314  20.3047686  59.1673565
  43.0181294  20.8901767  58.7807579  44.4637677  20.8353881  59.2268602
  37.5948941  17.3936823  59.5660699  38.3679817  16.8465810  59.4273575
  37.9474340  18.2581073  59.7775161  39.4333984  18.7213206  72.7727599
  39.1423850  19.6258836  72.6574265  40.0690968  18.7629733  73.4871668
  40.3590191  16.0990054  69.3628958  40.9553763  15.8746077  68.6485921
  40.4165162  15.3574800  69.9654406  39.9315219  13.5529489  57.1979149
  40.1840740  13.0311011  56.4362612  38.9939778  13.3895635  57.3005833
  44.9758502  12.5565268  65.0053892  45.7621591  12.1384691  64.6544309
  45.2397206  13.4611360  65.1735541  45.1468579  17.9938118  59.7042549
  44.5114412  18.0672745  60.4163454  44.8165986  18.5831717  59.0261628
  50.3766929  12.4940501  65.9086871  51.1092101  11.9239718  66.1424700
  49.6206285  12.1062101  66.3493377  39.6511508  15.4557595  59.4003524
  39.5347766  14.7802499  60.0684608  39.7613768  14.9689969  58.5835677
  41.9943049  14.9167743  63.1050213  41.6301256  14.3898364  63.8163135
  42.8510164  14.5266212  62.9316699  47.8992349   6.2062075  70.3681480
  47.5675674   7.0757486  70.1442695  47.3037963   5.8898359  71.0475510
  41.6348536   9.9457642  58.1011562  41.8022938  10.8137879  58.4682033
  41.4445705  10.1084924  57.1772851  44.3923869  18.4074621  69.7677392
  44.0924592  19.3099660  69.6593200  44.0474928  18.1406804  70.6198545
  37.8436350  14.8588418  65.8014097  36.9186847  14.7264632  66.0091788
  38.0920763  15.6382637  66.2984039  47.7921013  10.9257161  67.4474830
  46.8837890  10.8572570  67.1533591  47.7408608  11.4029106  68.2756655
  41.6137756  12.4015300  59.0858229  41.4937382  12.8472351  59.9243709
  40.9190345  12.7500617  58.5271767  35.2045161  14.5021692  66.6357886
  35.3337542  14.7556170  67.5497297  34.5242613  15.0949400  66.3162541
  39.3744649  25.1718941  62.7348360  39.2968678  26.1226767  62.8136841
  38.7706292  24.8264814  63.3923286  41.8661878  12.3446807  75.3909727
  41.0895212  12.9040727  75.3812592  42.5052441  12.8303590  75.9124597
  49.6582659   9.1273600  69.2252704  49.0157039   9.4206133  68.5792498
  49.1537587   9.0126520  70.0305900  47.3122823  12.8736773  59.9138563
  48.2240679  13.1064160  59.7386260  46.8032470  13.4573817  59.3513641
  40.1208251  15.1532260  74.9527694  40.8622935  15.6917304  74.6762517
  39.4145236  15.7798549  75.1099246  45.5963590  17.2961401  73.5499855
  46.0046946  16.8543811  72.8054488  44.8740852  16.7214028  73.8034048
  41.9494660  12.2334008  70.9233412  42.7955856  12.6573421  71.0668061
  41.8893298  11.5767632  71.6171975  45.9192405  17.8562591  67.3052144
  45.2901267  18.0208306  66.6028212  45.5318067  18.2704201  68.0763108
  49.7981637  18.7917029  64.6596508  49.1132675  19.1715931  64.1093541
  49.8825486  19.4012356  65.3928456  45.0994106   9.8938376  72.5814586
  44.8555038  10.6480436  72.0448862  45.3754036  10.2723723  73.4161833
  47.0532568  16.4376988  71.2591852  47.2649464  17.0808748  70.5826233
  47.0062317  15.6039305  70.7913782  41.4720367  17.5936999  64.5702229
  41.9358712  17.8724702  63.7806852  41.2077165  16.6920444  64.3875320
  38.3644448  17.1408481  67.5081993  38.9345805  17.5695749  66.8699477
  38.9552560  16.8591066  68.2066178  40.4089253  13.7160152  61.3791794
  41.1113296  14.1681195  61.8465721  40.0769881  13.0743971  62.0071688
  38.8569614  12.3071908  75.7543004  38.2268275  12.9888189  75.9878401
  38.7505702  12.1954990  74.8096142  34.1514587  11.9743704  66.6808928
  33.3613641  12.2301233  66.2049039  34.6425834  12.7892042  66.7860969
  48.1678396  19.3148944  69.4314209  48.9895840  18.9129131  69.1496891
  48.1640799  19.2117178  70.3830325  36.1029332  12.3388284  63.6392405
  35.3060495  12.4506978  64.1575900  35.8754924  12.6774936  62.7733295
  41.9335000  18.8632987  71.5874919  41.9979432  19.3253394  72.4233091
  41.2245924  18.2330352  71.7157229  32.4352290  12.2274195  69.1123919
  32.6860328  13.1121205  69.3781495  32.9711838  12.0478796  68.3399011
  56.2584389  15.6587692  65.7799180  55.5048098  15.0895090  65.6243185
  56.3931931  15.6250357  66.7269815  41.6483017  20.5301094  61.4553900
  41.5128692  21.3752630  61.8838748  42.1892830  20.7320372  60.6919833
  38.1350357   6.6092674  78.1168255  37.7417303   6.0558873  78.7915899
  38.9516497   6.9203253  78.5074772  35.1012415  18.0476532  62.0281825
  35.6136935  18.8419783  62.1787389  35.7535128  17.3502823  61.9615426
  36.9107300  21.1642289  64.1104578  37.0873928  22.0860253  63.9225562
  37.7064133  20.8500708  64.5398958  41.0518318   8.0250553  75.7088511
  41.7928031   8.6257707  75.6292974  41.2836241   7.2828191  75.1506554
  36.1959656  13.2106921  73.9866741  36.0813171  12.3092178  74.2873840
  35.3404174  13.4570617  73.6351558  43.2751494  21.1524661  75.5854242
  42.8315348  20.3661040  75.2675146  43.9368707  21.3403811  74.9198133
  38.0338615  22.6820463  70.1114920  38.5846040  22.5537526  69.3391914
  37.1950091  22.9815352  69.7609813  45.3732732  21.4327461  73.6135643
  45.3551207  22.2536342  73.1215912  46.2952652  21.3081536  73.8385784
  41.8305786  18.9471590  74.4559151  42.3634123  18.1859879  74.2258459
  41.3019867  18.6545242  75.1983306  44.9975481   4.0531656  69.9852793
  44.6539750   4.9433298  69.9091904  45.3654444   3.8633314  69.1222378
  33.0661332  16.3765187  62.8041395  33.9036554  16.7862195  62.5875103
  33.2439599  15.4364629  62.7741589  44.9625764  14.0440267  58.4925228
  44.4472387  14.8144872  58.7313616  44.6903072  13.3705404  59.1158290
  42.5472875   8.8889968  63.5510467  41.6914471   8.4996819  63.3716105
  42.9599827   8.9681929  62.6910252  44.0772021   6.4236311  67.9502026
  43.5736817   6.3866447  67.1369832  44.3702628   7.3329054  68.0098683
  40.3214907   6.5075041  66.9568208  41.1867904   6.3117850  66.5974098
  40.3892416   6.2785393  67.8837565  49.9360038  16.7972622  60.4278402
  49.1589481  16.4583782  59.9833564  50.6151519  16.8025245  59.7533367
  44.7512067  11.9167360  60.3185009  44.4462202  12.2313509  61.1695153
  45.7042509  11.9948779  60.3612342  43.1958499  18.0757583  61.9677963
  42.6679860  17.3410342  61.6551201  42.6946001  18.8532259  61.7217932
  48.1751345  16.2706603  67.0845010  47.5175019  16.9605865  67.1725138
  48.9791744  16.6603035  67.4278996  37.9277226   8.7377249  64.3284575
  38.5020978   8.5152431  63.5957768  38.5148209   8.8065944  65.0813176
  46.9856804  14.6250976  65.1348951  47.4988685  15.2580968  65.6370661
  47.6358027  14.0252172  64.7692312  38.2546813  10.7681710  58.3480460
  37.4184126  11.1056397  58.6689735  38.1151583  10.6330690  57.4107597
  40.2299894   5.6118498  63.0559644  39.5764306   5.2967515  62.4316259
  40.1880368   4.9894238  63.7819467  41.3411099  15.8937793  54.9712936
  40.4338161  15.6627047  55.1704085  41.8382131  15.0975412  55.1586918
  44.2479178  24.6035300  57.8909623  43.5740877  24.9066997  58.4994580
  44.6345000  25.4064381  57.5415080  43.4637634  12.1000432  67.3807292
  42.5460196  12.3215379  67.2228980  43.8797778  12.1746742  66.5218999
  44.2472682  13.4991847  62.5109972  44.9944501  14.0113244  62.2017094
  44.5164272  13.1775900  63.3714366  42.5199332  15.9950388  59.4936927
  41.6110552  15.7109421  59.5909396  42.5494416  16.4149467  58.6340233
  47.7518600  19.6056977  63.2628094  47.2980927  18.7647887  63.3193285
  47.1212567  20.2418376  63.6002874  46.6951519  10.5348964  64.4928762
  45.9574276  10.0226350  64.8239004  46.9478293  10.0949345  63.6812038
  46.1951539  21.4433474  64.1977912  46.4874513  22.0038531  63.4790278
  46.7050160  21.7362035  64.9531071  46.7963147   3.3125216  65.0870531
  47.1022023   2.4522579  64.7996446  47.5215751   3.9042836  64.8869525
  33.0887503  13.7155902  63.4752129  32.8911903  13.1225263  62.7503195
  32.5334167  13.4108112  64.1928068  41.0684226  13.6079009  65.5946722
  41.1232836  12.6552845  65.5189198  40.2575428  13.7638448  66.0788020
  42.2175420  17.5359132  56.8325005  41.7794850  16.8194991  56.3730642
  42.9585861  17.7635246  56.2710097  39.0076586  12.2256068  63.3537101
  38.1944452  12.5250239  63.7602293  39.5035581  11.8311757  64.0711583
  41.1585164  22.2213825  65.2871365  41.1161343  22.4474672  64.3579897
  42.0747863  21.9877200  65.4357167  44.6050798  12.6897893  72.1851995
  44.9600186  12.9169366  73.0446460  45.2522929  13.0216270  71.5629250
  50.3348535  15.8116329  62.8901324  50.1966434  16.0017925  61.9622513
  49.9784754  16.5735712  63.3469375  38.4990661   9.7974424  68.9698336
  39.1390040   9.6563183  68.2721299  37.6668192   9.5108937  68.5936938
  50.3617915  17.8792856  67.9012595  50.7954421  17.7868145  68.7495649
  51.0749495  17.8550356  67.2632611  39.2750965  19.0976854  65.0833328
  40.0691564  18.6027174  64.8815903  38.5642657  18.5694717  64.7201034
  44.0945809  21.4794950  69.4345696  44.1482832  22.0485886  70.2023412
  43.2260591  21.6496835  69.0699733  35.5833728  13.2419936  61.1593081
  34.6531317  13.1804391  61.3763043  35.6791200  12.7195889  60.3629722
  35.5019278   9.7674749  63.7471323  35.7626095  10.6820082  63.6380483
  36.3236450   9.2999191  63.8967935  36.9744203  11.1812506  70.9170147
  37.6467256  10.9729868  70.2682796  36.1473989  10.9834592  70.4775379
  51.2233464  17.9216556  70.4345481  51.4169354  18.8262367  70.6804756
  51.1234082  17.4623975  71.2684066  42.8769775   7.8074447  72.9335808
  42.2297690   8.5064397  72.8400284  43.6470790   8.2410591  73.3012056
  46.2848573  18.0723299  76.0086361  46.1334079  17.8433851  75.0916445
  46.2753252  19.0293901  76.0217706  43.0533909  15.6455212  70.9932628
  43.9825969  15.7966371  70.8201595  42.6324939  15.7339233  70.1381274
  41.8522241  19.6705876  68.7631165  41.7133327  19.3024661  69.6357103
  41.0636837  20.1853516  68.5915123  42.4470393  24.7714973  60.1056702
  42.6222149  24.3003016  60.9202324  41.7603181  25.3980739  60.3337963
  43.4027456  19.0487479  66.1520003  43.0677289  19.0088249  67.0477653
  42.9031402  18.3832195  65.6790413  37.3771700  14.4555109  71.6772584
  37.2391498  13.7235348  72.2784123  38.2876624  14.3664009  71.3956772
  46.3386648  16.3943513  56.4257063  45.7215818  15.6690341  56.3290115
  45.8703136  17.1552874  56.0824137  40.0054001  14.1675068  71.1656264
  40.7153619  13.5268261  71.1242882  39.9623309  14.4187963  72.0882445
  47.9940779  21.1042422  74.0862843  47.9353326  20.4201642  73.4193426
  48.3960298  21.8461412  73.6343469  38.7182935  11.1540286  72.9851903
  38.1820292  10.7031025  73.6373500  38.1299643  11.2886195  72.2422368
  37.0131478  27.9204335  66.8796562  37.2528076  28.5522860  67.5575581
  36.1700675  27.5692376  67.1661921  38.1285194  10.6128938  55.5478367
  37.2514660  10.4917738  55.1840614  38.6042947   9.8215016  55.2957256
  47.9958187  19.0682006  72.3176823  47.1084965  18.7307927  72.4403222
  48.5656738  18.3365037  72.5545588  29.6487334  15.4006097  65.6419874
  30.3358374  15.0867827  65.0540889  29.4935463  16.3047462  65.3687126
  34.4522056  10.2896294  70.0704898  34.3680245   9.6821963  69.3355308
  33.6304762  10.7805312  70.0714394  41.5259340  23.7283458  69.2838066
  41.4529512  24.5338429  69.7957371  41.0836733  23.9275424  68.4586087
  41.3149120  22.9655228  62.7940888  40.5316642  23.5076908  62.8879112
  42.0141865  23.4829208  63.1935129  44.6245770   8.7749857  65.4375093
  45.1214469   8.0219820  65.1176163  43.8532751   8.8114174  64.8718302
  52.4775527  14.4790223  67.0793384  52.4665404  15.3614938  66.7087317
  51.6092907  14.1261774  66.8847921  45.7075551  17.5321545  63.0113516
  44.7731829  17.6523007  62.8418221  45.8852219  16.6294011  62.7473526
  41.2080739  10.9167240  65.1646777  40.8378526  10.3638281  65.8527683
  41.7039831  10.3125374  64.6121778  49.0948102  13.3738864  63.5463550
  49.5608554  14.2066856  63.4723853  49.5455602  12.9083845  64.2508809
  39.0369937  21.3764735  72.2601795  39.7379397  22.0101218  72.4131190
  38.5665052  21.7179467  71.4997435  47.1624333  19.7182685  60.5449702
  47.4384177  19.6039280  61.4543577  46.2928832  19.3200170  60.5061876
  47.0664765   5.7419451  67.5854452  46.1527844   5.9723678  67.7536659
  47.4957866   5.8257895  68.4368484  46.8371223  13.9309343  70.0854346
  46.1842673  14.1785250  69.4306799  47.2151603  13.1173481  69.7516823
  43.7978397  23.9669036  64.1882516  43.9800792  23.1490692  64.6510268
  44.6211383  24.1836728  63.7507406  44.1320563  22.8937221  61.4497565
  44.6608329  22.3829676  60.8367727  44.3948782  22.5779751  62.3143098
  42.8858796  14.6729154  76.5720383  42.2099433  14.5723283  77.2422758
  43.7086430  14.5168368  77.0356380  34.6337655  20.9101090  69.1932898
  35.2191092  20.1644778  69.3260802  34.4362494  21.2205047  70.0769562
  37.4876310  23.9452338  64.2095341  36.8186686  24.4298465  63.7259381
  37.3489180  24.1921558  65.1238719  29.2255310  13.4806691  67.9137341
  29.2639409  12.9470281  68.7074459  28.7195603  12.9541896  67.2948318
  41.6281579  25.9796081  70.8077999  42.1799887  26.1427703  71.5727084
  41.9687773  26.5700519  70.1358024  36.6046072   8.3271231  71.4099884
  36.6687399   9.1886062  70.9977281  36.5413193   7.7145233  70.6772242
  36.0798345  10.3994364  75.0572918  36.7070384  10.0171441  75.6710442
  35.2226264  10.1808566  75.4228610  46.4792453  20.8057339  76.6626653
  47.0232357  21.4187297  76.1681608  45.8979298  21.3636917  77.1793666
  32.8563888  12.2070793  60.9891273  33.1517329  11.2981471  60.9358326
  31.9551923  12.1858532  60.6672275  44.7649966  23.9278057  67.7941681
  44.6401106  23.1267797  67.2852627  45.4229057  24.4224250  67.3055651
  36.3858135  10.2826789  66.9718821  35.6644720  10.8962757  66.8326295
  37.1751390  10.8184554  66.8935467  46.8284875  21.7287077  69.4221231
  45.8815210  21.6092428  69.3499558  47.1767648  20.8409575  69.5047493
  39.1884448   7.6181216  73.2459473  39.7118850   7.8643512  74.0085782
  38.9696781   8.4501251  72.8262610  34.5851729   9.8884890  61.1130598
  34.2564435   9.0082269  60.9305704  34.9391100   9.8332559  62.0006987
  43.8331308  21.5239793  65.6225583  43.6856270  20.5956501  65.8033153
  44.6584802  21.5459884  65.1382659  37.6993552  10.1757860  61.4806076
  38.0389625  10.7043782  60.7584684  38.1465673  10.5138266  62.2564642
  47.4365430  22.3468352  66.7090456  48.3611977  22.1411213  66.5714907
  47.2680733  22.0984753  67.6179798  40.3936993   8.5594911  70.9309144
  40.0533813   7.7602724  71.3329823  39.6875999   8.8596622  70.3585977
  41.0453465   5.6444223  69.3836467  41.8679534   5.1704702  69.2615357
  41.2891528   6.4234707  69.8835153  39.6861699   8.6732482  59.6799368
  40.4070062   9.0513735  59.1763085  39.0627004   9.3921359  59.7834346
  43.8292822   9.3777631  60.6157701  44.0456437  10.2602269  60.3146529
  43.3486889   8.9863844  59.8863343  38.5692044  12.3363344  67.1928445
  38.4236624  12.6503647  68.0852727  38.0917247  12.9548244  66.6399344
  40.4288427   9.3265892  67.2409335  40.4149995   8.4306985  66.9041633
  41.1460855   9.3336556  67.8747621  42.2814557   9.7603232  69.2862462
  42.0232335  10.6820303  69.2846793  41.7499598   9.3633667  69.9762926
  47.2260746  22.8654019  62.0652548  47.3997624  22.3000442  61.3126400
  47.7189637  23.6654914  61.8832038  33.0437706  14.8768688  70.1316106
  32.4991174  15.6528496  70.2636381  33.9217056  15.2239493  69.9735228
  39.8325323   8.2080272  62.5096905  39.9541234   7.2796919  62.7087792
  39.5427365   8.2218958  61.5975220  42.7016513   5.8935183  65.6463625
  42.7238210   5.9574516  64.6915604  43.1184572   5.0539691  65.8404131
  53.0800137  15.6290442  63.6842847  53.5231283  14.8797768  63.2861971
  52.2026648  15.6200579  63.3016579  48.2135919  22.1820784  59.1649446
  48.9086823  22.8027476  59.3836760  48.5559069  21.3316135  59.4401824
  33.8303728  14.0038585  73.0246263  33.0885464  14.1521220  73.6110894
  33.5096472  14.2646850  72.1613013  50.1127342  19.6320489  60.6936777
  50.6378666  19.9707762  59.9686097  50.0249694  18.6967505  60.5099911
  41.7747390  23.5454563  72.8226653  42.0834517  23.3003710  73.6949353
  42.5722872  23.7501201  72.3345523  41.7968002  25.6992473  65.0532030
  41.3572993  25.2068851  65.7464886  42.5476119  25.1565440  64.8124105
  34.2760341  21.8904013  65.0556658  35.1018361  21.5907785  64.6755301
  33.9254393  21.1211636  65.5046447  39.2441875  21.2430482  67.1254331
  38.6221884  20.5801187  66.8256559  39.9146741  21.2691614  66.4427979
  32.4768946  19.8090340  66.0145591  31.6400855  19.3812514  65.8329593
  32.4492592  20.0022783  66.9516383  39.3166402   9.7212270  76.7186837
  39.3654558  10.5974393  76.3364607  39.8588916   9.1789663  76.1458481
  49.8021248  20.2653393  75.9987975  49.0116791  20.2477532  75.4592474
  49.5654602  20.8041687  76.7537011  49.9219123  17.1145859  73.3120703
  49.9717128  16.9495867  74.2536226  49.8133046  16.2473118  72.9218584
  38.8055381  19.7934405  60.6012792  38.9543502  20.4769869  59.9479465
  39.6121825  19.7739495  61.1162248  47.2122885  13.0976787  74.6280010
  48.1132748  12.9583252  74.3364008  47.2870860  13.2631242  75.5678187
  41.5465690  10.4743642  73.4733196  40.6769000  10.7677208  73.2015785
  41.7825171  11.0584087  74.1940460  51.4237320  19.5342801  73.5562725
  51.1322128  19.8972781  74.3926186  50.8109451  18.8209809  73.3776057
  52.6233002  17.0995681  66.0765295  53.4579893  17.5385485  66.2402855
  52.7592131  16.6234334  65.2573541  49.6724508  14.6575415  72.0242783
  50.1478629  14.8503062  71.2161634  48.7490073  14.7134601  71.7786166
  36.5608014  15.8199583  61.6073861  36.3154056  14.9161913  61.8054071
  36.7303929  15.8216733  60.6653339  44.2504724   6.6923259  70.9898617
  44.7686668   7.4284286  70.6645105  43.8959857   6.9987252  71.8245376
  35.8303662  11.5527940  59.1060022  35.1372907  11.6272295  58.4500058
  35.5855414  10.7888284  59.6281539  44.5017318   3.1123542  66.5099513
  44.7819072   2.4446731  67.1359940  45.2867925   3.3052637  65.9974177
  42.3050787  22.2882535  58.0724539  41.7324754  22.9072723  57.6195011
  42.8783581  22.8381897  58.6064461  48.3726177  11.5341176  70.2571088
  49.3243600  11.6339273  70.2783312  48.2029627  10.7419444  70.7669173
  46.3940556   8.6196759  70.4430489  45.7990488   8.9001772  69.7476978
  46.1090253   9.1090660  71.2147230  45.5248047  22.5719686  59.2033122
  46.4578720  22.5065247  59.4065997  45.4371260  23.4075952  58.7447654
  48.1536063  21.8885556  56.1637069  48.0749695  21.5545420  57.0572827
  48.9745730  22.3807324  56.1628542  50.8514255  14.7547295  69.3713388
  50.8190575  13.8163296  69.5573072  51.4614878  14.8331332  68.6379213
  42.6897585  13.6243348  55.4140592  43.6356690  13.4949556  55.4829010
  42.3111830  12.8858010  55.8910020  51.0008743  11.5458339  69.4171671
  50.4847792  10.7616795  69.2301600  51.8848692  11.2177055  69.5818191
  48.6619470   5.2899354  65.3767484  48.4644291   4.9814442  66.2610816
  49.2719176   6.0160993  65.5065414  56.6690804  15.8163302  68.5119425
  57.3994193  15.5548590  69.0727128  56.0597750  15.0792024  68.5521493
  54.7506102  13.9571165  69.1093876  54.0239265  13.8227130  68.5010367
  54.3353388  14.2647993  69.9150594  42.5736278  17.6761094  76.8741249
  43.4939287  17.8539693  77.0681295  42.5385861  16.7317140  76.7220948
  40.8740503  11.5493325  55.3495477  39.9671958  11.2526437  55.4258191
  41.1516484  11.2523143  54.4829763  31.7918443  12.8699688  65.7994524
  31.4721227  12.0164996  65.5068898  31.2451871  13.0848266  66.5552491
  35.5698351  15.5862129  69.5164030  35.7884360  16.5179237  69.5352064
  35.9824124  15.2270103  70.3018834  42.4902568   6.0930214  61.5039718
  41.6803297   5.7477299  61.8794965  43.1786985   5.7837758  62.0927330
  44.4193117   5.1708261  63.1264015  44.9724155   5.5903715  63.7854038
  44.6563203   4.2444009  63.1686971  40.4426216  11.1595335  78.9066779
  40.3422943  12.1089692  78.8378870  40.2247758  10.8313574  78.0342849
  39.6439287   8.4080260  55.4907456  40.5058451   8.7335158  55.7503274
  39.8289631   7.6211756  54.9780522  31.6606703  16.4902600  67.7687645
  30.9670174  16.0756552  67.2557600  32.4079694  16.5323136  67.1721064
  47.7971924   7.2808786  62.6342679  47.2170593   7.9393590  62.2520732
  47.5307856   6.4586131  62.2230097  46.2475490   6.6813844  64.8364000
  46.7475268   6.7930379  64.0278319  46.8911098   6.3774897  65.4764808
  40.3057486  14.5892474  77.7231841  39.8224568  15.3892834  77.9295730
  40.3918425  14.6000418  76.7699285  33.5743446  16.4220853  65.6453660
  33.5514134  16.5208541  64.6935543  33.8844082  17.2686004  65.9670826
  36.2330823  18.4797008  69.7600274  37.1874077  18.4480951  69.6930206
  36.0343347  18.0187632  70.5750500  36.8230206  17.0498124  72.3271072
  37.6423095  17.5442203  72.3505909  37.0967013  16.1330093  72.2988640
  46.5796802   9.4408877  61.6899028  45.6922657   9.7258527  61.4719222
  46.9950791   9.2802640  60.8426305  49.9311338   9.4655398  65.4053367
  50.7071728   9.9551850  65.6777984  49.2059472   9.8913452  65.8625236
  52.3683897  10.1783017  66.4627307  52.9628387   9.9378753  65.7520616
  52.4410480   9.4590147  67.0900844  34.5881052  24.0216628  66.7770472
  34.4535520  23.2617029  66.2108470  34.1713114  24.7457528  66.3099261
  45.7240015  19.2053551  55.7847048  46.4275865  19.4103554  56.4004703
  45.0002664  19.7730313  56.0496131  46.5537826  14.9563413  61.9049318
  46.4973027  15.4131964  61.0656950  47.1066168  14.1954097  61.7272161
  50.3642631  10.7453144  62.7299437  50.1079566  10.3449780  63.5607645
  49.7395499  11.4596938  62.6049576  54.6754969  13.4849218  65.2370729
  54.1154527  13.5542407  66.0102291  54.0698473  13.3090202  64.5170225
  37.7450178  24.9185945  66.9888915  37.6282562  25.8631377  66.8867605
  36.9242624  24.6159506  67.3774714  47.6326713  19.6436081  57.8345508
  48.4672317  19.2117279  57.6522982  47.4711056  19.4718094  58.7622402
  47.2872605  16.1468194  59.2001847  47.2321409  15.9812465  58.2590291
  46.6618660  16.8544227  59.3564037  32.0765120  11.3836258  73.0263269
  32.7223983  10.8735212  73.5150494  31.8682271  12.1204940  73.6006694
  44.6018512  18.4517106  78.5255410  45.4709672  18.6257758  78.1642045
  44.1225263  19.2711523  78.4031139  40.5968730   5.6476303  58.7787165
  40.5847400   6.5918143  58.9355436  41.4892152   5.4646448  58.4846627
  38.7704692  25.5714207  70.2044843  39.6731939  25.6037817  70.5211338
  38.5442062  24.6414658  70.2191179  40.5258294  24.3245193  66.8654922
  39.5753925  24.3247055  66.7519294  40.8290780  23.5777928  66.3490957
  44.4120850   2.2419080  63.0333102  43.6453246   1.6877566  63.1789784
  44.8231555   2.3140948  63.8947254  36.4162611   8.5303875  77.1238283
  37.2794072   8.1740680  77.3341608  35.8428021   8.1917770  77.8113688
  48.9287510  31.9668636  63.8559100  48.3652375  31.8758573  63.0875388
  48.8139905  31.1468541  64.3361593  53.5520477  31.2668012  73.8248415
  53.5409118  30.8720810  72.9528918  53.7141116  30.5334084  74.4182186
  46.4751942  33.4619828  66.6943320  47.2673234  33.1210652  66.2789620
  46.7148592  33.5714803  67.6145474  48.4342696  32.7228741  59.5660699
  49.2073572  32.1757728  59.4273575  48.7868094  33.5872990  59.7775161
  50.2727738  34.0505123  72.7727599  49.9817604  34.9550754  72.6574265
  50.9084723  34.0921651  73.4871668  51.1983945  31.4281972  69.3628958
  51.7947517  31.2037994  68.6485921  51.2558917  30.6866717  69.9654406
  58.7386104  21.5353993  70.3681480  58.4069428  22.4049404  70.1442695
  58.1431717  21.2190277  71.0475510  48.6830105  30.1880336  65.8014097
  47.7580601  30.0556550  66.0091788  48.9314518  30.9674555  66.2984039
  58.6314767  26.2549079  67.4474830  57.7231644  26.1864487  67.1533591
  58.5802363  26.7321024  68.2756655  46.0438916  29.8313609  66.6357886
  46.1731297  30.0848088  67.5497297  45.3636367  30.4241317  66.3162541
  52.7055633  27.6738725  75.3909727  51.9288967  28.2332645  75.3812592
  53.3446196  28.1595508  75.9124597  60.4976413  24.4565517  69.2252704
  59.8550794  24.7498051  68.5792498  59.9931342  24.3418438  70.0305900
  50.9602005  30.4824178  74.9527694  51.7016689  31.0209222  74.6762517
  50.2538991  31.1090467  75.1099246  52.7888415  27.5625925  70.9233412
  53.6349610  27.9865339  71.0668061  52.7287052  26.9059550  71.6171975
  55.9387860  25.2230294  72.5814586  55.6948792  25.9772354  72.0448862
  56.2147791  25.6015641  73.4161833  55.4952552  24.3786727  68.1628424
  54.6337031  24.6767980  68.4545161  55.5214987  24.5957125  67.2309456
  49.2038202  32.4700399  67.5081993  49.7739559  32.8987667  66.8699477
  49.7946314  32.1882983  68.2066178  49.6963369  27.6363826  75.7543004
  49.0662029  28.3180107  75.9878401  49.5899457  27.5246908  74.8096142
  44.9908341  27.3035622  66.6808928  44.2007395  27.5593151  66.2049039
  45.4819589  28.1183960  66.7860969  46.9423087  27.6680201  63.6392405
  46.1454250  27.7798896  64.1575900  46.7148679  28.0066854  62.7733295
  43.2746044  27.5566113  69.1123919  43.5254083  28.4413123  69.3781495
  43.8105593  27.3770714  68.3399011  48.9744112  21.9384592  78.1168255
  48.5811057  21.3850791  78.7915899  49.7910252  22.2495170  78.5074772
  45.9406169  33.3768450  62.0281825  46.4530690  34.1711700  62.1787389
  46.5928882  32.6794741  61.9615426  51.8912073  23.3542471  75.7088511
  52.6321786  23.9549624  75.6292974  52.1229995  22.6120109  75.1506554
  47.0353411  28.5398838  73.9866741  46.9206926  27.6384096  74.2873840
  46.1797928  28.7862535  73.6351558  52.6699541  34.2763508  74.4559151
  53.2027877  33.5151796  74.2258459  52.1413622  33.9837160  75.1983306
  55.8369236  19.3823574  69.9852793  55.4933505  20.2725216  69.9091904
  56.2048198  19.1925232  69.1222378  43.9055086  31.7057104  62.8041395
  44.7430308  32.1154113  62.5875103  44.0833354  30.7656547  62.7741589
  53.3866629  24.2181886  63.5510467  52.5308226  23.8288736  63.3716105
  53.7993581  24.2973847  62.6910252  54.9165776  21.7528229  67.9502026
  54.4130571  21.7158364  67.1369832  55.2096383  22.6620972  68.0098683
  51.1608662  21.8366959  66.9568208  52.0261659  21.6409768  66.5974098
  51.2286171  21.6077311  67.8837565  48.7670981  24.0669167  64.3284575
  49.3414733  23.8444348  63.5957768  49.3541963  24.1357861  65.0813176
  49.0940568  26.0973628  58.3480460  48.2577880  26.4348314  58.6689735
  48.9545338  25.9622608  57.4107597  51.0693649  20.9410416  63.0559644
  50.4158061  20.6259433  62.4316259  51.0274123  20.3186156  63.7819467
  54.3031389  27.4292349  67.3807292  53.3853950  27.6507296  67.2228980
  54.7191533  27.5038660  66.5218999  57.5345274  25.8640881  64.4928762
  56.7968031  25.3518267  64.8239004  57.7872047  25.4241263  63.6812038
  57.6356901  18.6417133  65.0870531  57.9415778  17.7814497  64.7996446
  58.3609506  19.2334753  64.8869525  43.9281257  29.0447820  63.4752129
  43.7305657  28.4517180  62.7503195  43.3727921  28.7400030  64.1928068
  51.9077981  28.9370926  65.5946722  51.9626591  27.9844763  65.5189198
  51.0969183  29.0930365  66.0788020  49.8470341  27.5547986  63.3537101
  49.0338206  27.8542157  63.7602293  50.3429335  27.1603675  64.0711583
  55.4444553  28.0189810  72.1851995  55.7993940  28.2461284  73.0446460
  56.0916684  28.3508187  71.5629250  49.3384416  25.1266342  68.9698336
  49.9783795  24.9855101  68.2721299  48.5061946  24.8400855  68.5936938
  50.1144719  34.4268772  65.0833328  50.9085318  33.9319092  64.8815903
  49.4036412  33.8986635  64.7201034  46.4227483  28.5711854  61.1593081
  45.4925071  28.5096309  61.3763043  46.5184955  28.0487806  60.3629722
  46.3413032  25.0966667  63.7471323  46.6019849  26.0112000  63.6380483
  47.1630204  24.6291109  63.8967935  47.8137957  26.5104424  70.9170147
  48.4861011  26.3021786  70.2682796  46.9867744  26.3126510  70.4775379
  53.7163529  23.1366365  72.9335808  53.0691444  23.8356314  72.8400284
  54.4864545  23.5702509  73.3012056  57.1242327  33.4015217  76.0086361
  56.9727834  33.1725768  75.0916445  57.1147007  34.3585818  76.0217706
  48.2165455  29.7847027  71.6772584  48.0785253  29.0527265  72.2784123
  49.1270378  29.6955927  71.3956772  50.8447755  29.4966986  71.1656264
  51.5547374  28.8560178  71.1242882  50.8017063  29.7479881  72.0882445
  49.5576689  26.4832204  72.9851903  49.0214046  26.0322942  73.6373500
  48.9693398  26.6178113  72.2422368  48.9678948  25.9420855  55.5478367
  48.0908415  25.8209656  55.1840614  49.4436701  25.1506934  55.2957256
  40.4881088  30.7298015  65.6419874  41.1752128  30.4159745  65.0540889
  40.3329217  31.6339380  65.3687126  45.2915810  25.6188212  70.0704898
  45.2073999  25.0113881  69.3355308  44.4698517  26.1097230  70.0714394
  55.4639524  24.1041775  65.4375093  55.9608224  23.3511737  65.1176163
  54.6926506  24.1406092  64.8718302  52.0474493  26.2459158  65.1646777
  51.6772281  25.6930198  65.8527683  52.5433586  25.6417292  64.6121778
  57.9058519  21.0711369  67.5854452  56.9921599  21.3015595  67.7536659
  58.3351621  21.1549813  68.4368484  57.6764978  29.2601261  70.0854346
  57.0236428  29.5077168  69.4306799  58.0545358  28.4465399  69.7516823
  53.7252551  30.0021072  76.5720383  53.0493188  29.9015201  77.2422758
  54.5480185  29.8460285  77.0356380  45.4731410  36.2393008  69.1932898
  46.0584847  35.4936696  69.3260802  45.2756248  36.5496965  70.0769562
  40.0649064  28.8098608  67.9137341  40.1033164  28.2762199  68.7074459
  39.5589357  28.2833814  67.2948318  47.4439827  23.6563149  71.4099884
  47.5081153  24.5177980  70.9977281  47.3806947  23.0437151  70.6772242
  46.9192099  25.7286281  75.0572918  47.5464138  25.3463359  75.6710442
  46.0620018  25.5100483  75.4228610  57.3186208  36.1349257  76.6626653
  57.8626112  36.7479215  76.1681608  56.7373053  36.6928835  77.1793666
  43.6957642  27.5362711  60.9891273  43.9911083  26.6273389  60.9358326
  42.7945678  27.5150450  60.6672275  47.2251889  25.6118707  66.9718821
  46.5038475  26.2254675  66.8326295  48.0145145  26.1476472  66.8935467
  50.0278203  22.9473134  73.2459473  50.5512604  23.1935430  74.0085782
  49.8090536  23.7793168  72.8262610  45.4245484  25.2176808  61.1130598
  45.0958190  24.3374187  60.9305704  45.7784854  25.1624477  62.0006987
  48.5387307  25.5049778  61.4806076  48.8783379  26.0335699  60.7584684
  48.9859427  25.8430184  62.2564642  51.2330748  23.8886829  70.9309144
  50.8927568  23.0894642  71.3329823  50.5269754  24.1888540  70.3585977
  51.8847219  20.9736141  69.3836467  52.7073289  20.4996619  69.2615357
  52.1285283  21.7526625  69.8835153  50.5255454  24.0024400  59.6799368
  51.2463816  24.3805652  59.1763085  49.9020758  24.7213276  59.7834346
  54.6686577  24.7069549  60.6157701  54.8850191  25.5894186  60.3146529
  54.1880644  24.3155762  59.8863343  49.4085798  27.6655262  67.1928445
  49.2630379  27.9795565  68.0852727  48.9311002  28.2840162  66.6399344
  51.2682181  24.6557810  67.2409335  51.2543750  23.7598903  66.9041633
  51.9854609  24.6628473  67.8747621  53.1208312  25.0895150  69.2862462
  52.8626090  26.0112221  69.2846793  52.5893352  24.6925584  69.9762926
  43.8831460  30.2060606  70.1316106  43.3384928  30.9820414  70.2636381
  44.7610810  30.5531411  69.9735228  50.6719077  23.5372190  62.5096905
  50.7934988  22.6088836  62.7087792  50.3821119  23.5510876  61.5975220
  53.5410267  21.2227100  65.6463625  53.5631964  21.2866434  64.6915604
  53.9578326  20.3831609  65.8404131  44.6697482  29.3330502  73.0246263
  43.9279218  29.4813138  73.6110894  44.3490226  29.5938768  72.1613013
  43.3162701  35.1382258  66.0145591  42.4794609  34.7104432  65.8329593
  43.2886346  35.3314701  66.9516383  50.1560157  25.0504187  76.7186837
  50.2048312  25.9266310  76.3364607  50.6982671  24.5081580  76.1458481
  60.7612877  32.4437777  73.3120703  60.8110882  32.2787784  74.2536226
  60.6526801  31.5765036  72.9218584  58.0516640  28.4268705  74.6280010
  58.9526502  28.2875170  74.3364008  58.1264614  28.5923160  75.5678187
  52.3859445  25.8035560  73.4733196  51.5162754  26.0969126  73.2015785
  52.6218925  26.3876005  74.1940460  60.5118262  29.9867333  72.0242783
  60.9872384  30.1794979  71.2161634  59.5883828  30.0426519  71.7786166
  47.4001769  31.1491500  61.6073861  47.1547811  30.2453830  61.8054071
  47.5697683  31.1508651  60.6653339  55.0898479  22.0215177  70.9898617
  55.6080423  22.7576204  70.6645105  54.7353612  22.3279170  71.8245376
  46.6697416  26.8819858  59.1060022  45.9766661  26.9564213  58.4500058
  46.4249168  26.1180202  59.6281539  55.3411073  18.4415459  66.5099513
  55.6212827  17.7738648  67.1359940  56.1261680  18.6344555  65.9974177
  59.2119931  26.8633093  70.2571088  60.1637354  26.9631191  70.2783312
  59.0423382  26.0711362  70.7669173  57.2334311  23.9488676  70.4430489
  56.6384243  24.2293689  69.7476978  56.9484008  24.4382577  71.2147230
  61.8402498  26.8750256  69.4171671  61.3241546  26.0908713  69.2301600
  62.7242446  26.5468973  69.5818191  59.5013225  20.6191272  65.3767484
  59.3038046  20.3106360  66.2610816  60.1112930  21.3452911  65.5065414
  65.5899856  29.2863082  69.1093876  64.8633020  29.1519047  68.5010367
  65.1747143  29.5939911  69.9150594  53.4130033  33.0053012  76.8741249
  54.3333042  33.1831611  77.0681295  53.3779616  32.0609057  76.7220948
  51.7134257  26.8785242  55.3495477  50.8065713  26.5818355  55.4258191
  51.9910238  26.5815060  54.4829763  42.6312198  28.1991606  65.7994524
  42.3114982  27.3456914  65.5068898  42.0845626  28.4140184  66.5552491
  46.4092105  30.9154047  69.5164030  46.6278115  31.8471155  69.5352064
  46.8217879  30.5562021  70.3018834  53.3296323  21.4222132  61.5039718
  52.5197051  21.0769217  61.8794965  54.0180740  21.1129676  62.0927330
  55.2586871  20.5000179  63.1264015  55.8117910  20.9195632  63.7854038
  55.4956958  19.5735927  63.1686971  51.2819970  26.4887252  78.9066779
  51.1816697  27.4381609  78.8378870  51.0641512  26.1605491  78.0342849
  50.4833042  23.7372178  55.4907456  51.3452206  24.0627076  55.7503274
  50.6683386  22.9503673  54.9780522  42.5000458  31.8194517  67.7687645
  41.8063929  31.4048470  67.2557600  43.2473449  31.8615054  67.1721064
  58.6365678  22.6100704  62.6342679  58.0564347  23.2685508  62.2520732
  58.3701611  21.7878049  62.2230097  57.0869245  22.0105762  64.8364000
  57.5869023  22.1222296  64.0278319  57.7304853  21.7066815  65.4764808
  51.1451240  29.9184391  77.7231841  50.6618322  30.7184751  77.9295730
  51.2312179  29.9292336  76.7699285  44.4137200  31.7512771  65.6453660
  44.3907888  31.8500458  64.6935543  44.7237837  32.5977922  65.9670826
  47.0724578  33.8088926  69.7600274  48.0267831  33.7772868  69.6930206
  46.8737102  33.3479550  70.5750500  47.6623960  32.3790042  72.3271072
  48.4816849  32.8734121  72.3505909  47.9360768  31.4622010  72.2988640
  57.4190556  24.7700794  61.6899028  56.5316411  25.0550445  61.4719222
  57.8344545  24.6094558  60.8426305  60.7705092  24.7947315  65.4053367
  61.5465483  25.2843768  65.6777984  60.0453227  25.2205370  65.8625236
  63.2077651  25.5074935  66.4627307  63.8022142  25.2670671  65.7520616
  63.2804235  24.7882065  67.0900844  61.2036386  26.0745062  62.7299437
  60.9473320  25.6741698  63.5607645  60.5789254  26.7888856  62.6049576
  42.9158874  26.7128176  73.0263269  43.5617738  26.2027130  73.5150494
  42.7076025  27.4496858  73.6006694  55.4412266  33.7809023  78.5255410
  56.3103426  33.9549676  78.1642045  54.9619018  34.6003440  78.4031139
  51.4362485  20.9768221  58.7787165  51.4241155  21.9210060  58.9355436
  52.3285907  20.7938366  58.4846627  55.2514604  17.5710997  63.0333102
  54.4847000  17.0169484  63.1789784  55.6625309  17.6432866  63.8947254
  47.2556365  23.8595793  77.1238283  48.1187827  23.5032598  77.3341608
  46.6821776  23.5209688  77.8113688  77.9371898  46.3171527  65.7799180
  77.1835607  45.7478926  65.6243185  78.0719440  46.2834192  66.7269815
  59.8137866  37.2676510  78.1168255  59.4204812  36.7142708  78.7915899
  60.6304006  37.5787088  78.5074772  71.6147547  47.4556457  60.4278402
  70.8376990  47.1167617  59.9833564  72.2939028  47.4609081  59.7533367
  72.0136044  46.4700164  62.8901324  71.8753943  46.6601760  61.9622513
  71.6572263  47.2319547  63.3469375  72.0405424  48.5376691  67.9012595
  72.4741930  48.4451980  68.7495649  72.7537004  48.5134192  67.2632611
  72.9020973  48.5800392  70.4345481  73.0956863  49.4846202  70.6804756
  72.8021591  48.1207811  71.2684066  68.8411842  50.3766521  60.5449702
  69.1171686  50.2623115  61.4543577  67.9716341  49.9784005  60.5061876
  68.9048255  53.5237855  62.0652548  69.0785133  52.9584277  61.3126400
  69.3977146  54.3238750  61.8832038  74.7587646  46.2874278  63.6842847
  75.2018792  45.5381603  63.2861971  73.8814157  46.2784414  63.3016579
  69.8923428  52.8404619  59.1649446  70.5874332  53.4611312  59.3836760
  70.2346578  51.9899970  59.4401824  71.7914851  50.2904325  60.6936777
  72.3166175  50.6291597  59.9686097  71.7037203  49.3551340  60.5099911
  74.3020511  47.7579516  66.0765295  75.1367402  48.1969320  66.2402855
  74.4379640  47.2818169  65.2573541  78.3478313  46.4747137  68.5119425
  79.0781702  46.2132426  69.0727128  77.7385259  45.7375859  68.5521493
  74.0471406  40.8366852  66.4627307  74.6415896  40.5962588  65.7520616
  74.1197989  40.1173983  67.0900844  76.3542478  44.1433053  65.2370729
  75.7942036  44.2126242  66.0102291  75.7485982  43.9674038  64.5170225
  77.9398497  60.8189567  67.9300684  78.5776907  60.6996314  67.2264024
  77.8219340  61.7670411  67.9888637  74.7488203  60.7716995  67.8662209
  74.4106715  60.6558060  66.9782744  75.6177971  60.3708160  67.8463215
  70.6075019  62.6252472  63.8559100  70.0439884  62.5342408  63.0875388
  70.4927414  61.8052376  64.3361593  75.2307986  61.9251847  73.8248415
  75.2196627  61.5304645  72.9528918  75.3928625  61.1917919  74.4182186
  68.1539451  64.1203663  66.6943320  68.9460743  63.7794488  66.2789620
  68.3936101  64.2298638  67.6145474  76.1874577  66.2923439  59.1673565
  75.5362557  66.8777520  58.7807579  76.9818940  66.8229634  59.2268602
  70.1130205  63.3812576  59.5660699  70.8861081  62.8341563  59.4273575
  70.4655603  64.2456826  59.7775161  71.9515247  64.7088959  72.7727599
  71.6605113  65.6134590  72.6574265  72.5872231  64.7505486  73.4871668
  72.8771454  62.0865807  69.3628958  73.4735026  61.8621830  68.6485921
  72.9346426  61.3450553  69.9654406  72.4496482  59.5405243  57.1979149
  72.7022003  59.0186764  56.4362612  71.5121041  59.3771388  57.3005833
  77.4939765  58.5441021  65.0053892  78.2802854  58.1260444  64.6544309
  77.7578470  59.4487113  65.1735541  77.6649843  63.9813871  59.7042549
  77.0295676  64.0548498  60.4163454  77.3347249  64.5707470  59.0261628
  82.8948192  58.4816254  65.9086871  83.6273364  57.9115471  66.1424700
  82.1387548  58.0937855  66.3493377  72.1692771  61.4433348  59.4003524
  72.0529029  60.7678252  60.0684608  72.2795031  60.9565722  58.5835677
  74.5124312  60.9043496  63.1050213  74.1482519  60.3774117  63.8163135
  75.3691428  60.5141965  62.9316699  80.4173613  52.1937828  70.3681480
  80.0856937  53.0633239  70.1442695  79.8219226  51.8774112  71.0475510
  74.1529799  55.9333395  58.1011562  74.3204201  56.8013632  58.4682033
  73.9626968  56.0960677  57.1772851  76.9105132  64.3950374  69.7677392
  76.6105855  65.2975413  69.6593200  76.5656192  64.1282557  70.6198545
  70.3617614  60.8464171  65.8014097  69.4368110  60.7140385  66.0091788
  70.6102027  61.6258390  66.2984039  80.3102276  56.9132914  67.4474830
  79.4019153  56.8448323  67.1533591  80.2589872  57.3904859  68.2756655
  74.1319020  58.3891053  59.0858229  74.0118645  58.8348104  59.9243709
  73.4371608  58.7376370  58.5271767  67.7226425  60.4897445  66.6357886
  67.8518806  60.7431923  67.5497297  67.0423876  61.0825153  66.3162541
  71.8925912  71.1594695  62.7348360  71.8149942  72.1102520  62.8136841
  71.2887556  70.8140567  63.3923286  82.1763922  55.1149353  69.2252704
  81.5338303  55.4081886  68.5792498  81.6718851  55.0002273  70.0305900
  79.8304086  58.8612526  59.9138563  80.7421942  59.0939913  59.7386260
  79.3213733  59.4449570  59.3513641  72.6389514  61.1408013  74.9527694
  73.3804198  61.6793057  74.6762517  71.9326500  61.7674302  75.1099246
  78.1144854  63.2837154  73.5499855  78.5228210  62.8419564  72.8054488
  77.3922115  62.7089781  73.8034048  74.4675924  58.2209761  70.9233412
  75.3137119  58.6449174  71.0668061  74.4074561  57.5643385  71.6171975
  78.4373668  63.8438344  67.3052144  77.8082531  64.0084059  66.6028212
  78.0499330  64.2579954  68.0763108  82.3162900  64.7792782  64.6596508
  81.6313938  65.1591684  64.1093541  82.4006750  65.3888109  65.3928456
  79.5713832  62.4252741  71.2591852  79.7830727  63.0684501  70.5826233
  79.5243580  61.5915058  70.7913782  77.1740061  55.0370562  68.1628424
  76.3124540  55.3351815  68.4545161  77.2002495  55.2540961  67.2309456
  73.9901630  63.5812752  64.5702229  74.4539976  63.8600455  63.7806852
  73.7258428  62.6796197  64.3875320  70.8825711  63.1284234  67.5081993
  71.4527068  63.5571502  66.8699477  71.4733823  62.8466819  68.2066178
  72.9270516  59.7035905  61.3791794  73.6294560  60.1556949  61.8465721
  72.5951145  59.0619724  62.0071688  80.6859660  65.3024697  69.4314209
  81.5077104  64.9004884  69.1496891  80.6822063  65.1992931  70.3830325
  68.6210596  58.3264037  63.6392405  67.8241759  58.4382731  64.1575900
  68.3936188  58.6650689  62.7733295  74.4516263  64.8508740  71.5874919
  74.5160696  65.3129147  72.4233091  73.7427187  64.2206105  71.7157229
  88.7765653  61.6463445  65.7799180  88.0229361  61.0770843  65.6243185
  88.9113194  61.6126110  66.7269815  74.1664281  66.5176847  61.4553900
  74.0309956  67.3628383  61.8838748  74.7074093  66.7196125  60.6919833
  67.6193678  64.0352286  62.0281825  68.1318199  64.8295536  62.1787389
  68.2716391  63.3378576  61.9615426  69.4288563  67.1518042  64.1104578
  69.6055191  68.0736006  63.9225562  70.2245397  66.8376461  64.5398958
  75.7932757  67.1400414  75.5854242  75.3496611  66.3536793  75.2675146
  76.4549971  67.3279564  74.9198133  70.5519878  68.6696216  70.1114920
  71.1027304  68.5413279  69.3391914  69.7131354  68.9691105  69.7609813
  77.8913995  67.4203214  73.6135643  77.8732471  68.2412095  73.1215912
  78.8133915  67.2957289  73.8385784  74.3487050  64.9347343  74.4559151
  74.8815386  64.1735632  74.2258459  73.8201131  64.6420995  75.1983306
  77.5156745  50.0407409  69.9852793  77.1721014  50.9309051  69.9091904
  77.8835707  49.8509067  69.1222378  65.5842595  62.3640940  62.8041395
  66.4217817  62.7737948  62.5875103  65.7620863  61.4240382  62.7741589
  77.4807027  60.0316020  58.4925228  76.9653651  60.8020625  58.7313616
  77.2084336  59.3581157  59.1158290  75.0654138  54.8765721  63.5510467
  74.2095735  54.4872572  63.3716105  75.4781090  54.9557682  62.6910252
  76.5953285  52.4112065  67.9502026  76.0918080  52.3742200  67.1369832
  76.8883892  53.3204807  68.0098683  72.8396171  52.4950794  66.9568208
  73.7049168  52.2993603  66.5974098  72.9073680  52.2661146  67.8837565
  82.4541301  62.7848375  60.4278402  81.6770744  62.4459535  59.9833564
  83.1332782  62.7900998  59.7533367  77.2693330  57.9043113  60.3185009
  76.9643466  58.2189262  61.1695153  78.2223773  57.9824532  60.3612342
  75.7139762  64.0633336  61.9677963  75.1861124  63.3286095  61.6551201
  75.2127265  64.8408012  61.7217932  80.6932608  62.2582356  67.0845010
  80.0356283  62.9481618  67.1725138  81.4973007  62.6478788  67.4278996
  70.4458490  54.7253002  64.3284575  71.0202242  54.5028184  63.5957768
  71.0329472  54.7941697  65.0813176  79.5038067  60.6126729  65.1348951
  80.0169949  61.2456721  65.6370661  80.1539291  60.0127925  64.7692312
  70.7728077  56.7557463  58.3480460  69.9365389  57.0932150  58.6689735
  70.6332847  56.6206443  57.4107597  72.7481158  51.5994251  63.0559644
  72.0945570  51.2843268  62.4316259  72.7061632  50.9769992  63.7819467
  73.8592362  61.8813546  54.9712936  72.9519424  61.6502800  55.1704085
  74.3563394  61.0851165  55.1586918  76.7660441  70.5911053  57.8909623
  76.0922140  70.8942750  58.4994580  77.1526263  71.3940134  57.5415080
  75.9818898  58.0876185  67.3807292  75.0641459  58.3091132  67.2228980
  76.3979042  58.1622495  66.5218999  76.7653946  59.4867600  62.5109972
  77.5125765  59.9988998  62.2017094  77.0345535  59.1651653  63.3714366
  75.0380596  61.9826141  59.4936927  74.1291815  61.6985174  59.5909396
  75.0675680  62.4025220  58.6340233  80.2699863  65.5932731  63.2628094
  79.8162190  64.7523640  63.3193285  79.6393830  66.2294129  63.6002874
  79.2132783  56.5224717  64.4928762  78.4755540  56.0102103  64.8239004
  79.4659556  56.0825098  63.6812038  78.7132803  67.4309227  64.1977912
  79.0055777  67.9914284  63.4790278  79.2231423  67.7237788  64.9531071
  79.3144410  49.3000969  65.0870531  79.6203287  48.4398332  64.7996446
  80.0397015  49.8918589  64.8869525  65.6068766  59.7031655  63.4752129
  65.4093166  59.1101016  62.7503195  65.0515430  59.3983865  64.1928068
  73.5865490  59.5954762  65.5946722  73.6414100  58.6428598  65.5189198
  72.7756692  59.7514201  66.0788020  74.7356684  63.5234885  56.8325005
  74.2976114  62.8070744  56.3730642  75.4767125  63.7511000  56.2710097
  71.5257850  58.2131821  63.3537101  70.7125715  58.5125992  63.7602293
  72.0216844  57.8187510  64.0711583  73.6766428  68.2089578  65.2871365
  73.6342607  68.4350425  64.3579897  74.5929127  67.9752953  65.4357167
  77.1232062  58.6773646  72.1851995  77.4781449  58.9045119  73.0446460
  77.7704193  59.0092023  71.5629250  82.8529798  61.7992082  62.8901324
  82.7147697  61.9893678  61.9622513  82.4966017  62.5611465  63.3469375
  71.0171925  55.7850177  68.9698336  71.6571304  55.6438936  68.2721299
  70.1849455  55.4984690  68.5936938  82.8799178  63.8668609  67.9012595
  83.3135685  63.7743898  68.7495649  83.5930759  63.8426109  67.2632611
  71.7932228  65.0852607  65.0833328  72.5872827  64.5902927  64.8815903
  71.0823921  64.5570470  64.7201034  76.6127073  67.4670703  69.4345696
  76.6664095  68.0361639  70.2023412  75.7441854  67.6372588  69.0699733
  68.1014992  59.2295689  61.1593081  67.1712580  59.1680145  61.3763043
  68.1972464  58.7071642  60.3629722  83.7414728  63.9092309  70.4345481
  83.9350618  64.8138120  70.6804756  83.6415346  63.4499728  71.2684066
  78.8029836  64.0599052  76.0086361  78.6515343  63.8309604  75.0916445
  78.7934516  65.0169654  76.0217706  75.5715173  61.6330965  70.9932628
  76.5007233  61.7842124  70.8201595  75.1506203  61.7214986  70.1381274
  74.3703504  65.6581629  68.7631165  74.2314590  65.2900414  69.6357103
  73.5818101  66.1729269  68.5915123  74.9651656  70.7590726  60.1056702
  75.1403412  70.2878769  60.9202324  74.2784444  71.3856492  60.3337963
  75.9208720  65.0363232  66.1520003  75.5858552  64.9964002  67.0477653
  75.4212665  64.3707948  65.6790413  78.8567911  62.3819266  56.4257063
  78.2397082  61.6566094  56.3290115  78.3884400  63.1428627  56.0824137
  72.5235264  60.1550821  71.1656264  73.2334883  59.5144014  71.1242882
  72.4804572  60.4063716  72.0882445  80.5122043  67.0918175  74.0862843
  80.4534589  66.4077395  73.4193426  80.9141561  67.8337165  73.6343469
  69.5312742  73.9080089  66.8796562  69.7709340  74.5398613  67.5575581
  68.6881938  73.5568129  67.1661921  70.6466457  56.6004691  55.5478367
  69.7695924  56.4793491  55.1840614  71.1224210  55.8090769  55.2957256
  80.5139450  65.0557759  72.3176823  79.6266229  64.7183680  72.4403222
  81.0838001  64.3240790  72.5545588  74.0440604  69.7159211  69.2838066
  73.9710775  70.5214182  69.7957371  73.6017997  69.9151177  68.4586087
  73.8330383  68.9530981  62.7940888  73.0497905  69.4952661  62.8879112
  74.5323128  69.4704961  63.1935129  77.1427033  54.7625610  65.4375093
  77.6395733  54.0095573  65.1176163  76.3714015  54.7989927  64.8718302
  84.9956791  60.4665976  67.0793384  84.9846667  61.3490691  66.7087317
  84.1274170  60.1137527  66.8847921  76.5039287  69.6146045  71.4396225
  77.2167259  70.2493510  71.3672126  76.0129316  69.7109911  70.6236226
  78.2256814  63.5197298  63.0113516  77.2913093  63.6398760  62.8418221
  78.4033482  62.6169764  62.7473526  73.7262002  56.9042993  65.1646777
  73.3559790  56.3514034  65.8527683  74.2221095  56.3001127  64.6121778
  81.6129365  59.3614617  63.5463550  82.0789818  60.1942609  63.4723853
  82.0636866  58.8959599  64.2508809  71.5551201  67.3640488  72.2601795
  72.2560660  67.9976971  72.4131190  71.0846316  67.7055220  71.4997435
  79.6805596  65.7058438  60.5449702  79.9565440  65.5915033  61.4543577
  78.8110095  65.3075923  60.5061876  79.5846028  51.7295204  67.5854452
  78.6709108  51.9599431  67.7536659  80.0139130  51.8133648  68.4368484
  79.3552487  59.9185096  70.0854346  78.7023937  60.1661003  69.4306799
  79.7332867  59.1049234  69.7516823  76.3159660  69.9544789  64.1882516
  76.4982055  69.1366445  64.6510268  77.1392647  70.1712481  63.7507406
  76.6501826  68.8812974  61.4497565  77.1789592  68.3705429  60.8367727
  76.9130046  68.5655504  62.3143098  75.4040060  60.6604907  76.5720383
  74.7280697  60.5599036  77.2422758  76.2267694  60.5044121  77.0356380
  67.1518919  66.8976844  69.1932898  67.7372356  66.1520531  69.3260802
  66.9543757  67.2080800  70.0769562  70.0057574  69.9328091  64.2095341
  69.3367949  70.4174219  63.7259381  69.8670444  70.1797311  65.1238719
  74.1462843  71.9671834  70.8077999  74.6981151  72.1303456  71.5727084
  74.4869036  72.5576272  70.1358024  78.9973717  66.7933092  76.6626653
  79.5413621  67.4063050  76.1681608  78.4160562  67.3512670  77.1793666
  65.3745151  58.1946546  60.9891273  65.6698592  57.2857224  60.9358326
  64.4733187  58.1734285  60.6672275  77.2831230  69.9153810  67.7941681
  77.1582369  69.1143550  67.2852627  77.9410321  70.4100003  67.3055651
  68.9039398  56.2702542  66.9718821  68.1825984  56.8838510  66.8326295
  69.6932654  56.8060307  66.8935467  79.3466138  67.7162830  69.4221231
  78.3996474  67.5968181  69.3499558  79.6948911  66.8285328  69.5047493
  67.1032993  55.8760644  61.1130598  66.7745699  54.9958022  60.9305704
  67.4572363  55.8208312  62.0006987  76.3512571  67.5115546  65.6225583
  76.2037534  66.5832254  65.8033153  77.1766065  67.5335637  65.1382659
  70.2174816  56.1633613  61.4806076  70.5570888  56.6919535  60.7584684
  70.6646936  56.5014019  62.2564642  79.9546693  68.3344105  66.7090456
  80.8793241  68.1286966  66.5714907  79.7861997  68.0860506  67.6179798
  72.9118257  54.5470664  70.9309144  72.5715077  53.7478477  71.3329823
  72.2057263  54.8472375  70.3585977  73.5634728  51.6319976  69.3836467
  74.3860798  51.1580455  69.2615357  73.8072792  52.4110460  69.8835153
  72.2042963  54.6608235  59.6799368  72.9251325  55.0389488  59.1763085
  71.5808267  55.3797112  59.7834346  76.3474086  55.3653384  60.6157701
  76.5637700  56.2478022  60.3146529  75.8668153  54.9739597  59.8863343
  71.0873307  58.3239097  67.1928445  70.9417888  58.6379400  68.0852727
  70.6098511  58.9423997  66.6399344  72.9469690  55.3141645  67.2409335
  72.9331259  54.4182738  66.9041633  73.6642118  55.3212309  67.8747621
  74.7995821  55.7478985  69.2862462  74.5413599  56.6696056  69.2846793
  74.2680861  55.3509420  69.9762926  79.7442010  68.8529772  62.0652548
  79.9178887  68.2876195  61.3126400  80.2370901  69.6530667  61.8832038
  65.5618969  60.8644442  70.1316106  65.0172437  61.6404249  70.2636381
  66.4398319  61.2115246  69.9735228  72.3506586  54.1956025  62.5096905
  72.4722497  53.2672672  62.7087792  72.0608628  54.2094711  61.5975220
  75.2197776  51.8810936  65.6463625  75.2419473  51.9450269  64.6915604
  75.6365835  51.0415444  65.8404131  85.5981401  61.6166195  63.6842847
  86.0412547  60.8673521  63.2861971  84.7207911  61.6076332  63.3016579
  80.7317182  68.1696537  59.1649446  81.4268087  68.7903230  59.3836760
  81.0740332  67.3191888  59.4401824  82.6308605  65.6196242  60.6936777
  83.1559929  65.9583515  59.9686097  82.5430958  64.6843258  60.5099911
  74.2928654  69.5330316  72.8226653  74.6015780  69.2879463  73.6949353
  75.0904136  69.7376954  72.3345523  74.3149266  71.6868226  65.0532030
  73.8754256  71.1944604  65.7464886  75.0657383  71.1441193  64.8124105
  66.7941605  67.8779766  65.0556658  67.6199625  67.5783538  64.6755301
  66.4435657  67.1087389  65.5046447  71.7623138  67.2306235  67.1254331
  71.1403147  66.5676940  66.8256559  72.4328005  67.2567367  66.4427979
  64.9950210  65.7966093  66.0145591  64.1582118  65.3688267  65.8329593
  64.9673855  65.9898536  66.9516383  82.3202511  66.2529146  75.9987975
  81.5298055  66.2353285  75.4592474  82.0835866  66.7917440  76.7537011
  82.4400386  63.1021612  73.3120703  82.4898391  62.9371620  74.2536226
  82.3314310  62.2348871  72.9218584  71.3236645  65.7810158  60.6012792
  71.4724765  66.4645622  59.9479465  72.1303088  65.7615248  61.1162248
  79.7304149  59.0852540  74.6280010  80.6314011  58.9459005  74.3364008
  79.8052123  59.2506995  75.5678187  83.9418583  65.5218554  73.5562725
  83.6503391  65.8848534  74.3926186  83.3290714  64.8085562  73.3776057
  85.1414265  63.0871434  66.0765295  85.9761157  63.5261238  66.2402855
  85.2773394  62.6110087  65.2573541  82.1905771  60.6451169  72.0242783
  82.6659893  60.8378815  71.2161634  81.2671337  60.7010354  71.7786166
  69.0789278  61.8075336  61.6073861  68.8335320  60.9037666  61.8054071
  69.2485192  61.8092486  60.6653339  76.7685988  52.6799012  70.9898617
  77.2867932  53.4160039  70.6645105  76.4141121  52.9863005  71.8245376
  68.3484925  57.5403693  59.1060022  67.6554170  57.6148048  58.4500058
  68.1036677  56.7764037  59.6281539  77.0198582  49.0999295  66.5099513
  77.3000336  48.4322484  67.1359940  77.8049189  49.2928390  65.9974177
  74.8232050  68.2758289  58.0724539  74.2506018  68.8948476  57.6195011
  75.3964844  68.8257650  58.6064461  80.8907440  57.5216929  70.2571088
  81.8424863  57.6215026  70.2783312  80.7210891  56.7295197  70.7669173
  78.9121820  54.6072512  70.4430489  78.3171752  54.8877525  69.7476978
  78.6271516  55.0966413  71.2147230  78.0429310  68.5595439  59.2033122
  78.9759983  68.4941000  59.4065997  77.9552523  69.3951705  58.7447654
  80.6717327  67.8761309  56.1637069  80.5930958  67.5421173  57.0572827
  81.4926994  68.3683077  56.1628542  83.3695518  60.7423048  69.3713388
  83.3371838  59.8039049  69.5573072  83.9796142  60.8207085  68.6379213
  75.2078849  59.6119101  55.4140592  76.1537954  59.4825309  55.4829010
  74.8293094  58.8733763  55.8910020  83.5190007  57.5334092  69.4171671
  83.0029055  56.7492548  69.2301600  84.4029955  57.2052808  69.5818191
  81.1800734  51.2775107  65.3767484  80.9825555  50.9690195  66.2610816
  81.7900439  52.0036746  65.5065414  89.1872068  61.8039055  68.5119425
  89.9175456  61.5424343  69.0727128  88.5779013  61.0667777  68.5521493
  87.2687365  59.9446918  69.1093876  86.5420529  59.8102883  68.5010367
  86.8534652  60.2523746  69.9150594  75.0917542  63.6636847  76.8741249
  76.0120551  63.8415446  77.0681295  75.0567125  62.7192893  76.7220948
  73.3921766  57.5369078  55.3495477  72.4853222  57.2402190  55.4258191
  73.6697747  57.2398896  54.4829763  68.0879614  61.5737882  69.5164030
  68.3065624  62.5054990  69.5352064  68.5005388  61.2145856  70.3018834
  75.0083832  52.0805967  61.5039718  74.1984560  51.7353052  61.8794965
  75.6968249  51.7713511  62.0927330  76.9374380  51.1584014  63.1264015
  77.4905419  51.5779468  63.7854038  77.1744466  50.2319762  63.1686971
  64.1787967  62.4778353  67.7687645  63.4851438  62.0632305  67.2557600
  64.9260958  62.5198889  67.1721064  80.3153187  53.2684539  62.6342679
  79.7351856  53.9269343  62.2520732  80.0489120  52.4461884  62.2230097
  78.7656754  52.6689597  64.8364000  79.2656532  52.7806132  64.0278319
  79.4092362  52.3650650  65.4764808  72.8238749  60.5768227  77.7231841
  72.3405831  61.3768587  77.9295730  72.9099688  60.5876172  76.7699285
  66.0924709  62.4096606  65.6453660  66.0695397  62.5084294  64.6935543
  66.4025346  63.2561757  65.9670826  68.7512087  64.4672761  69.7600274
  69.7055340  64.4356704  69.6930206  68.5524610  64.0063385  70.5750500
  69.3411469  63.0373877  72.3271072  70.1604358  63.5317956  72.3505909
  69.6148277  62.1205846  72.2988640  79.0978065  55.4284630  61.6899028
  78.2103920  55.7134280  61.4719222  79.5132054  55.2678393  60.8426305
  82.4492601  55.4531151  65.4053367  83.2252991  55.9427603  65.6777984
  81.7240736  55.8789205  65.8625236  84.8865160  56.1658770  66.4627307
  85.4809651  55.9254506  65.7520616  84.9591744  55.4465900  67.0900844
  67.1062316  70.0092381  66.7770472  66.9716784  69.2492782  66.2108470
  66.6894378  70.7333281  66.3099261  78.2421279  65.1929304  55.7847048
  78.9457129  65.3979307  56.4004703  77.5183927  65.7606066  56.0496131
  79.0719089  60.9439166  61.9049318  79.0154290  61.4007717  61.0656950
  79.6247431  60.1829850  61.7272161  82.8823895  56.7328898  62.7299437
  82.6260829  56.3325533  63.5607645  82.2576763  57.4472691  62.6049576
  87.1936233  59.4724971  65.2370729  86.6335791  59.5418160  66.0102291
  86.5879736  59.2965955  64.5170225  70.2631442  70.9061698  66.9888915
  70.1463826  71.8507130  66.8867605  69.4423888  70.6035259  67.3774714
  80.1507976  65.6311834  57.8345508  80.9853580  65.1993032  57.6522982
  79.9892319  65.4593847  58.7622402  79.8053868  62.1343947  59.2001847
  79.7502672  61.9688218  58.2590291  79.1799924  62.8419980  59.3564037
  77.1199775  64.4392859  78.5255410  77.9890935  64.6133511  78.1642045
  76.6406527  65.2587276  78.4031139  71.2885956  71.5589960  70.2044843
  72.1913202  71.5913570  70.5211338  71.0623326  70.6290411  70.2191179
  73.0439558  70.3120946  66.8654922  72.0935189  70.3122808  66.7519294
  73.3472044  69.5653681  66.3490957  76.9302113  48.2294833  63.0333102
  76.1634509  47.6753319  63.1789784  77.3412818  48.3016701  63.8947254
  88.7792251  76.1481485  67.9300684  89.4170661  76.0288232  67.2264024
  88.6613094  77.0962329  67.9888637  85.5881957  76.1008913  67.8662209
  85.2500469  75.9849978  66.9782744  86.4571726  75.7000078  67.8463215
  81.4468773  77.9544389  63.8559100  80.8833638  77.8634326  63.0875388
  81.3321168  77.1344294  64.3361593  86.0701740  77.2543765  73.8248415
  86.0590381  76.8596563  72.9528918  86.2322380  76.5209837  74.4182186
  78.9933205  79.4495581  66.6943320  79.7854497  79.1086405  66.2789620
  79.2329855  79.5590556  67.6145474  87.0268332  81.6215357  59.1673565
  86.3756312  82.2069437  58.7807579  87.8212695  82.1521552  59.2268602
  80.9523959  78.7104494  59.5660699  81.7254835  78.1633481  59.4273575
  81.3049358  79.5748743  59.7775161  82.7909002  80.0380876  72.7727599
  82.4998868  80.9426507  72.6574265  83.4265986  80.0797404  73.4871668
  83.7165208  77.4157725  69.3628958  84.3128781  77.1913747  68.6485921
  83.7740180  76.6742470  69.9654406  83.2890237  74.8697160  57.1979149
  83.5415758  74.3478681  56.4362612  82.3514796  74.7063306  57.3005833
  88.3333520  73.8732939  65.0053892  89.1196609  73.4552362  64.6544309
  88.5972224  74.7779031  65.1735541  88.5043597  79.3105789  59.7042549
  87.8689430  79.3840415  60.4163454  88.1741003  79.8999388  59.0261628
  93.7341947  73.8108172  65.9086871  94.4667119  73.2407389  66.1424700
  92.9781303  73.4229772  66.3493377  83.0086526  76.7725266  59.4003524
  82.8922784  76.0970170  60.0684608  83.1188786  76.2857640  58.5835677
  85.3518067  76.2335413  63.1050213  84.9876274  75.7066034  63.8163135
  86.2085182  75.8433882  62.9316699  91.2567367  67.5229746  70.3681480
  90.9250692  68.3925157  70.1442695  90.6612981  67.2066030  71.0475510
  84.9923554  71.2625313  58.1011562  85.1597956  72.1305549  58.4682033
  84.8020723  71.4252595  57.1772851  87.7498887  79.7242292  69.7677392
  87.4499610  80.6267331  69.6593200  87.4049946  79.4574475  70.6198545
  81.2011368  76.1756089  65.8014097  80.2761865  76.0432303  66.0091788
  81.4495781  76.9550308  66.2984039  91.1496031  72.2424832  67.4474830
  90.2412908  72.1740240  67.1533591  91.0983626  72.7196777  68.2756655
  84.9712774  73.7182970  59.0858229  84.8512400  74.1640021  59.9243709
  84.2765363  74.0668288  58.5271767  78.5620179  75.8189362  66.6357886
  78.6912560  76.0723841  67.5497297  77.8817631  76.4117070  66.3162541
  82.7319667  86.4886612  62.7348360  82.6543696  87.4394437  62.8136841
  82.1281310  86.1432485  63.3923286  85.2236896  73.6614478  75.3909727
  84.4470230  74.2208398  75.3812592  85.8627459  74.1471261  75.9124597
  93.0157677  70.4441270  69.2252704  92.3732057  70.7373804  68.5792498
  92.5112605  70.3294191  70.0305900  90.6697841  74.1904444  59.9138563
  91.5815697  74.4231830  59.7386260  90.1607488  74.7741488  59.3513641
  83.4783269  76.4699931  74.9527694  84.2197953  77.0084975  74.6762517
  82.7720254  77.0966220  75.1099246  88.9538608  78.6129071  73.5499855
  89.3621964  78.1711482  72.8054488  88.2315870  78.0381699  73.8034048
  85.3069678  73.5501678  70.9233412  86.1530873  73.9741092  71.0668061
  85.2468316  72.8935303  71.6171975  89.2767423  79.1730262  67.3052144
  88.6476285  79.3375976  66.6028212  88.8893085  79.5871872  68.0763108
  93.1556655  80.1084700  64.6596508  92.4707693  80.4883601  64.1093541
  93.2400504  80.7180027  65.3928456  88.4569124  71.2106047  72.5814586
  88.2130055  71.9648107  72.0448862  88.7329054  71.5891394  73.4161833
  90.4107586  77.7544659  71.2591852  90.6224482  78.3976419  70.5826233
  90.3637335  76.9206976  70.7913782  88.0133815  70.3662480  68.1628424
  87.1518294  70.6643733  68.4545161  88.0396250  70.5832878  67.2309456
  84.8295385  78.9104670  64.5702229  85.2933730  79.1892373  63.7806852
  84.5652183  78.0088115  64.3875320  81.7219466  78.4576152  67.5081993
  82.2920823  78.8863420  66.8699477  82.3127578  78.1758736  68.2066178
  83.7664271  75.0327823  61.3791794  84.4688314  75.4848866  61.8465721
  83.4344899  74.3911641  62.0071688  82.2144632  73.6239579  75.7543004
  81.5843293  74.3055860  75.9878401  82.1080720  73.5122661  74.8096142
  77.5089605  73.2911375  66.6808928  76.7188659  73.5468904  66.2049039
  78.0000852  74.1059713  66.7860969  91.5253414  80.6316614  69.4314209
  92.3470858  80.2296802  69.1496891  91.5215817  80.5284849  70.3830325
  79.4604350  73.6555954  63.6392405  78.6635513  73.7674649  64.1575900
  79.2329942  73.9942607  62.7733295  85.2910018  80.1800658  71.5874919
  85.3554450  80.6421065  72.4233091  84.5820942  79.5498023  71.7157229
  75.7927308  73.5441866  69.1123919  76.0435346  74.4288876  69.3781495
  76.3286856  73.3646467  68.3399011  99.6159407  76.9755363  65.7799180
  98.8623116  76.4062761  65.6243185  99.7506949  76.9418027  66.7269815
  85.0058035  81.8468765  61.4553900  84.8703710  82.6920301  61.8838748
  85.5467848  82.0488043  60.6919833  81.4925375  67.9260345  78.1168255
  81.0992321  67.3726544  78.7915899  82.3091515  68.2370923  78.5074772
  78.4587433  79.3644203  62.0281825  78.9711953  80.1587453  62.1787389
  79.1110146  78.6670494  61.9615426  80.2682318  82.4809959  64.1104578
  80.4448946  83.4027924  63.9225562  81.0639151  82.1668379  64.5398958
  84.4093336  69.3418224  75.7088511  85.1503049  69.9425377  75.6292974
  84.6411259  68.5995862  75.1506554  79.5534674  74.5274591  73.9866741
  79.4388189  73.6259849  74.2873840  78.6979192  74.7738288  73.6351558
  86.6326512  82.4692332  75.5854242  86.1890366  81.6828710  75.2675146
  87.2943725  82.6571482  74.9198133  81.3913633  83.9988133  70.1114920
  81.9421058  83.8705197  69.3391914  80.5525109  84.2983022  69.7609813
  88.7307750  82.7495132  73.6135643  88.7126225  83.5704013  73.1215912
  89.6527670  82.6249207  73.8385784  85.1880804  80.2639261  74.4559151
  85.7209141  79.5027549  74.2258459  84.6594885  79.9712913  75.1983306
  88.3550499  65.3699327  69.9852793  88.0114768  66.2600969  69.9091904
  88.7229462  65.1800985  69.1222378  76.4236350  77.6932857  62.8041395
  77.2611572  78.1029866  62.5875103  76.6014617  76.7532300  62.7741589
  88.3200782  75.3607938  58.4925228  87.8047405  76.1312543  58.7313616
  88.0478090  74.6873074  59.1158290  85.9047893  70.2057639  63.5510467
  85.0489489  69.8164489  63.3716105  86.3174845  70.2849600  62.6910252
  87.4347039  67.7403982  67.9502026  86.9311835  67.7034117  67.1369832
  87.7277646  68.6496725  68.0098683  83.6789925  67.8242712  66.9568208
  84.5442922  67.6285521  66.5974098  83.7467434  67.5953064  67.8837565
  93.2935056  78.1140293  60.4278402  92.5164499  77.7751452  59.9833564
  93.9726537  78.1192916  59.7533367  88.1087085  73.2335030  60.3185009
  87.8037220  73.5481179  61.1695153  89.0617527  73.3116450  60.3612342
  86.5533517  79.3925254  61.9677963  86.0254878  78.6578013  61.6551201
  86.0521019  80.1699930  61.7217932  91.5326363  77.5874274  67.0845010
  90.8750037  78.2773535  67.1725138  92.3366762  77.9770706  67.4278996
  81.2852244  70.0544920  64.3284575  81.8595996  69.8320101  63.5957768
  81.8723227  70.1233614  65.0813176  90.3431822  75.9418647  65.1348951
  90.8563703  76.5748639  65.6370661  90.9933045  75.3419842  64.7692312
  81.6121831  72.0849381  58.3480460  80.7759144  72.4224067  58.6689735
  81.4726601  71.9498361  57.4107597  83.5874912  66.9286169  63.0559644
  82.9339324  66.6135186  62.4316259  83.5455386  66.3061909  63.7819467
  84.6986117  77.2105464  54.9712936  83.7913179  76.9794717  55.1704085
  85.1957149  76.4143083  55.1586918  87.6054196  85.9202971  57.8909623
  86.9315895  86.2234668  58.4994580  87.9920018  86.7232051  57.5415080
  86.8212652  73.4168102  67.3807292  85.9035214  73.6383049  67.2228980
  87.2372796  73.4914413  66.5218999  87.6047700  74.8159518  62.5109972
  88.3519519  75.3280915  62.2017094  87.8739290  74.4943571  63.3714366
  85.8774350  77.3118059  59.4936927  84.9685570  77.0277092  59.5909396
  85.9069434  77.7317137  58.6340233  91.1093618  80.9224648  63.2628094
  90.6555945  80.0815558  63.3193285  90.4787584  81.5586047  63.6002874
  90.0526537  71.8516634  64.4928762  89.3149294  71.3394020  64.8239004
  90.3053311  71.4117016  63.6812038  89.5526557  82.7601145  64.1977912
  89.8449531  83.3206202  63.4790278  90.0625178  83.0529706  64.9531071
  90.1538165  64.6292886  65.0870531  90.4597041  63.7690250  64.7996446
  90.8790769  65.2210506  64.8869525  76.4462521  75.0323573  63.4752129
  76.2486921  74.4392934  62.7503195  75.8909185  74.7275783  64.1928068
  84.4259244  74.9246679  65.5946722  84.4807854  73.9720516  65.5189198
  83.6150446  75.0806118  66.0788020  85.5750438  78.8526802  56.8325005
  85.1369868  78.1362661  56.3730642  86.3160879  79.0802917  56.2710097
  82.3651604  73.5423739  63.3537101  81.5519470  73.8417910  63.7602293
  82.8610598  73.1479428  64.0711583  84.5160182  83.5381496  65.2871365
  84.4736361  83.7642342  64.3579897  85.4322881  83.3044871  65.4357167
  87.9625816  74.0065564  72.1851995  88.3175204  74.2337037  73.0446460
  88.6097947  74.3383940  71.5629250  93.6923553  77.1283999  62.8901324
  93.5541452  77.3185595  61.9622513  93.3359772  77.8903382  63.3469375
  81.8565679  71.1142095  68.9698336  82.4965058  70.9730854  68.2721299
  81.0243210  70.8276608  68.5936938  93.7192933  79.1960526  67.9012595
  94.1529439  79.1035815  68.7495649  94.4324513  79.1718027  67.2632611
  82.6325983  80.4144525  65.0833328  83.4266581  79.9194845  64.8815903
  81.9217675  79.8862388  64.7201034  87.4520827  82.7962621  69.4345696
  87.5057850  83.3653557  70.2023412  86.5835609  82.9664506  69.0699733
  78.9408746  74.5587607  61.1593081  78.0106335  74.4972062  61.3763043
  79.0366218  74.0363559  60.3629722  78.8594295  71.0842420  63.7471323
  79.1201113  71.9987753  63.6380483  79.6811468  70.6166862  63.8967935
  80.3319221  72.4980177  70.9170147  81.0042274  72.2897539  70.2682796
  79.5049007  72.3002263  70.4775379  94.5808482  79.2384227  70.4345481
  94.7744372  80.1430038  70.6804756  94.4809100  78.7791646  71.2684066
  86.2344793  69.1242118  72.9335808  85.5872708  69.8232067  72.8400284
  87.0045808  69.5578262  73.3012056  89.6423591  79.3890970  76.0086361
  89.4909097  79.1601521  75.0916445  89.6328270  80.3461571  76.0217706
  86.4108927  76.9622883  70.9932628  87.3400987  77.1134042  70.8201595
  85.9899957  77.0506903  70.1381274  85.2097259  80.9873547  68.7631165
  85.0708345  80.6192331  69.6357103  84.4211855  81.5021186  68.5915123
  85.8045411  86.0882643  60.1056702  85.9797167  85.6170687  60.9202324
  85.1178199  86.7148410  60.3337963  86.7602474  80.3655150  66.1520003
  86.4252307  80.3255920  67.0477653  86.2606420  79.6999866  65.6790413
  80.7346718  75.7722780  71.6772584  80.5966516  75.0403019  72.2784123
  81.6451642  75.6831680  71.3956772  89.6961666  77.7111184  56.4257063
  89.0790836  76.9858012  56.3290115  89.2278154  78.4720544  56.0824137
  83.3629019  75.4842739  71.1656264  84.0728637  74.8435931  71.1242882
  83.3198327  75.7355634  72.0882445  91.3515797  82.4210092  74.0862843
  91.2928344  81.7369312  73.4193426  91.7535316  83.1629082  73.6343469
  82.0757953  72.4707957  72.9851903  81.5395310  72.0198695  73.6373500
  81.4874661  72.6053866  72.2422368  80.3706496  89.2372006  66.8796562
  80.6103094  89.8690530  67.5575581  79.5275693  88.8860046  67.1661921
  81.4860212  71.9296608  55.5478367  80.6089678  71.8085409  55.1840614
  81.9617965  71.1382687  55.2957256  91.3533205  80.3849676  72.3176823
  90.4659983  80.0475598  72.4403222  91.9231756  79.6532708  72.5545588
  73.0062352  76.7173768  65.6419874  73.6933392  76.4035498  65.0540889
  72.8510480  77.6215133  65.3687126  77.8097074  71.6063965  70.0704898
  77.7255263  70.9989634  69.3355308  76.9879780  72.0972983  70.0714394
  84.8834358  85.0451129  69.2838066  84.8104530  85.8506100  69.7957371
  84.4411751  85.2443094  68.4586087  84.6724138  84.2822899  62.7940888
  83.8891660  84.8244579  62.8879112  85.3716883  84.7996878  63.1935129
  87.9820788  70.0917528  65.4375093  88.4789487  69.3387490  65.1176163
  87.2107769  70.1281845  64.8718302  95.8350545  75.7957894  67.0793384
  95.8240421  76.6782609  66.7087317  94.9667925  75.4429444  66.8847921
  87.3433042  84.9437963  71.4396225  88.0561014  85.5785427  71.3672126
  86.8523070  85.0401829  70.6236226  89.0650569  78.8489215  63.0113516
  88.1306847  78.9690678  62.8418221  89.2427237  77.9461682  62.7473526
  84.5655757  72.2334911  65.1646777  84.1953544  71.6805952  65.8527683
  85.0614849  71.6293045  64.6121778  92.4523120  74.6906535  63.5463550
  92.9183572  75.5234526  63.4723853  92.9030620  74.2251516  64.2508809
  82.3944955  82.6932406  72.2601795  83.0954415  83.3268889  72.4131190
  81.9240070  83.0347138  71.4997435  90.5199351  81.0350356  60.5449702
  90.7959195  80.9206951  61.4543577  89.6503850  80.6367841  60.5061876
  90.4239783  67.0587122  67.5854452  89.5102862  67.2891348  67.7536659
  90.8532884  67.1425566  68.4368484  90.1946241  75.2477014  70.0854346
  89.5417691  75.4952921  69.4306799  90.5726621  74.4341152  69.7516823
  87.1553415  85.2836707  64.1882516  87.3375810  84.4658363  64.6510268
  87.9786401  85.5004399  63.7507406  87.4895580  84.2104892  61.4497565
  88.0183347  83.6997346  60.8367727  87.7523800  83.8947422  62.3143098
  86.2433814  75.9896825  76.5720383  85.5674451  75.8890954  77.2422758
  87.0661448  75.8336038  77.0356380  77.9912673  82.2268761  69.1932898
  78.5766110  81.4812449  69.3260802  77.7937512  82.5372718  70.0769562
  80.8451328  85.2620009  64.2095341  80.1761704  85.7466136  63.7259381
  80.7064198  85.5089229  65.1238719  72.5830328  74.7974361  67.9137341
  72.6214427  74.2637952  68.7074459  72.0770621  74.2709567  67.2948318
  84.9856597  87.2963752  70.8077999  85.5374905  87.4595374  71.5727084
  85.3262790  87.8868190  70.1358024  79.9621090  69.6438902  71.4099884
  80.0262417  70.5053733  70.9977281  79.8988210  69.0312904  70.6772242
  79.4373363  71.7162034  75.0572918  80.0645402  71.3339112  75.6710442
  78.5801282  71.4976236  75.4228610  89.8367471  82.1225010  76.6626653
  90.3807375  82.7354968  76.1681608  89.2554316  82.6804588  77.1793666
  76.2138906  73.5238464  60.9891273  76.5092347  72.6149142  60.9358326
  75.3126941  73.5026203  60.6672275  88.1224984  85.2445728  67.7941681
  87.9976124  84.4435467  67.2852627  88.7804075  85.7391921  67.3055651
  79.7433153  71.5994460  66.9718821  79.0219738  72.2130428  66.8326295
  80.5326408  72.1352225  66.8935467  90.1859893  83.0454748  69.4221231
  89.2390228  82.9260099  69.3499558  90.5342666  82.1577246  69.5047493
  82.5459466  68.9348887  73.2459473  83.0693868  69.1811183  74.0085782
  82.3271799  69.7668921  72.8262610  77.9426747  71.2052561  61.1130598
  77.6139453  70.3249940  60.9305704  78.2966118  71.1500230  62.0006987
  87.1906326  82.8407464  65.6225583  87.0431288  81.9124171  65.8033153
  88.0159819  82.8627555  65.1382659  81.0568570  71.4925531  61.4806076
  81.3964643  72.0211452  60.7584684  81.5040691  71.8305937  62.2564642
  90.7940448  83.6636023  66.7090456  91.7186995  83.4578884  66.5714907
  90.6255751  83.4152424  67.6179798  83.7512011  69.8762582  70.9309144
  83.4108831  69.0770395  71.3329823  83.0451017  70.1764293  70.3585977
  84.4028483  66.9611894  69.3836467  85.2254552  66.4872372  69.2615357
  84.6466546  67.7402378  69.8835153  83.0436717  69.9900153  59.6799368
  83.7645080  70.3681405  59.1763085  82.4202022  70.7089029  59.7834346
  87.1867840  70.6945302  60.6157701  87.4031455  71.5769939  60.3146529
  86.7061907  70.3031515  59.8863343  81.9267062  73.6531015  67.1928445
  81.7811642  73.9671318  68.0852727  81.4492265  74.2715915  66.6399344
  83.7863445  70.6433563  67.2409335  83.7725013  69.7474656  66.9041633
  84.5035873  70.6504227  67.8747621  85.6389575  71.0770903  69.2862462
  85.3807353  71.9987974  69.2846793  85.1074616  70.6801338  69.9762926
  90.5835764  84.1821690  62.0652548  90.7572642  83.6168113  61.3126400
  91.0764655  84.9822585  61.8832038  76.4012724  76.1936359  70.1316106
  75.8566192  76.9696167  70.2636381  77.2792074  76.5407164  69.9735228
  83.1900340  69.5247943  62.5096905  83.3116252  68.5964589  62.7087792
  82.9002383  69.5386629  61.5975220  86.0591531  67.2102853  65.6463625
  86.0813228  67.2742187  64.6915604  86.4759590  66.3707362  65.8404131
  96.4375155  76.9458113  63.6842847  96.8806301  76.1965438  63.2861971
  95.5601665  76.9368249  63.3016579  91.5710937  83.4988455  59.1649446
  92.2661841  84.1195147  59.3836760  91.9134087  82.6483806  59.4401824
  77.1878746  75.3206255  73.0246263  76.4460482  75.4688891  73.6110894
  76.8671490  75.5814521  72.1613013  93.4702360  80.9488160  60.6936777
  93.9953684  81.2875433  59.9686097  93.3824712  80.0135175  60.5099911
  85.1322408  84.8622234  72.8226653  85.4409535  84.6171380  73.6949353
  85.9297890  85.0668872  72.3345523  85.1543020  87.0160143  65.0532030
  84.7148011  86.5236522  65.7464886  85.9051137  86.4733111  64.8124105
  77.6335359  83.2071684  65.0556658  78.4593379  82.9075456  64.6755301
  77.2829411  82.4379307  65.5046447  82.6016893  82.5598152  67.1254331
  81.9796902  81.8968857  66.8256559  83.2721759  82.5859284  66.4427979
  75.8343964  81.1258011  66.0145591  74.9975873  80.6980185  65.8329593
  75.8067610  81.3190454  66.9516383  82.6741420  71.0379940  76.7186837
  82.7229575  71.9142063  76.3364607  83.2163934  70.4957333  76.1458481
  93.1596266  81.5821064  75.9987975  92.3691809  81.5645203  75.4592474
  92.9229620  82.1209357  76.7537011  93.2794141  78.4313530  73.3120703
  93.3292146  78.2663537  74.2536226  93.1708064  77.5640789  72.9218584
  82.1630399  81.1102076  60.6012792  82.3118520  81.7937540  59.9479465
  82.9696843  81.0907166  61.1162248  90.5697903  74.4144458  74.6280010
  91.4707766  74.2750923  74.3364008  90.6445878  74.5798913  75.5678187
  84.9040708  71.7911313  73.4733196  84.0344018  72.0844879  73.2015785
  85.1400189  72.3751758  74.1940460  94.7812338  80.8510472  73.5562725
  94.4897146  81.2140452  74.3926186  94.1684469  80.1377480  73.3776057
  95.9808020  78.4163351  66.0765295  96.8154911  78.8553155  66.2402855
  96.1167149  77.9402005  65.2573541  93.0299526  75.9743086  72.0242783
  93.5053647  76.1670733  71.2161634  92.1065091  76.0302272  71.7786166
  79.9183032  77.1367253  61.6073861  79.6729074  76.2329583  61.8054071
  80.0878947  77.1384404  60.6653339  87.6079742  68.0090930  70.9898617
  88.1261686  68.7451957  70.6645105  87.2534875  68.3154923  71.8245376
  79.1878680  72.8695611  59.1060022  78.4947925  72.9439966  58.4500058
  78.9430432  72.1055955  59.6281539  87.8592336  64.4291212  66.5099513
  88.1394090  63.7614401  67.1359940  88.6442943  64.6220308  65.9974177
  85.6625805  83.6050206  58.0724539  85.0899772  84.2240393  57.6195011
  86.2358599  84.1549568  58.6064461  91.7301195  72.8508846  70.2571088
  92.6818618  72.9506944  70.2783312  91.5604645  72.0587115  70.7669173
  89.7515574  69.9364429  70.4430489  89.1565506  70.2169442  69.7476978
  89.4665271  70.4258330  71.2147230  88.8823065  83.8887356  59.2033122
  89.8153738  83.8232918  59.4065997  88.7946278  84.7243623  58.7447654
  91.5111081  83.2053227  56.1637069  91.4324713  82.8713090  57.0572827
  92.3320748  83.6974995  56.1628542  94.2089273  76.0714966  69.3713388
  94.1765593  75.1330967  69.5573072  94.8189896  76.1499003  68.6379213
  86.0472603  74.9411019  55.4140592  86.9931708  74.8117227  55.4829010
  85.6686848  74.2025681  55.8910020  94.3583761  72.8626009  69.4171671
  93.8422810  72.0784466  69.2301600  95.2423710  72.5344726  69.5818191
  92.0194488  66.6067025  65.3767484  91.8219309  66.2982113  66.2610816
  92.6294194  67.3328664  65.5065414 100.0265822  77.1330973  68.5119425
 100.7569211  76.8716261  69.0727128  99.4172768  76.3959695  68.5521493
  98.1081120  75.2738835  69.1093876  97.3814283  75.1394800  68.5010367
  97.6928406  75.5815664  69.9150594  85.9311296  78.9928765  76.8741249
  86.8514305  79.1707364  77.0681295  85.8960879  78.0484810  76.7220948
  84.2315521  72.8660995  55.3495477  83.3246976  72.5694108  55.4258191
  84.5091502  72.5690813  54.4829763  75.1493461  74.1867359  65.7994524
  74.8296245  73.3332667  65.5068898  74.6026889  74.4015937  66.5552491
  78.9273369  76.9029800  69.5164030  79.1459378  77.8346908  69.5352064
  79.3399142  76.5437774  70.3018834  85.8477586  67.4097885  61.5039718
  85.0378315  67.0644970  61.8794965  86.5362003  67.1005429  62.0927330
  87.7768135  66.4875932  63.1264015  88.3299173  66.9071385  63.7854038
  88.0138221  65.5611680  63.1686971  83.8001234  72.4763005  78.9066779
  83.6997961  73.4257362  78.8378870  83.5822776  72.1481244  78.0342849
  83.0014305  69.7247931  55.4907456  83.8633469  70.0502829  55.7503274
  83.1864649  68.9379426  54.9780522  75.0181721  77.8070270  67.7687645
  74.3245192  77.3924223  67.2557600  75.7654712  77.8490807  67.1721064
  91.1546942  68.5976457  62.6342679  90.5745611  69.2561261  62.2520732
  90.8882874  67.7753802  62.2230097  89.6050508  67.9981515  64.8364000
  90.1050286  68.1098049  64.0278319  90.2486116  67.6942568  65.4764808
  83.6632504  75.9060144  77.7231841  83.1799586  76.7060504  77.9295730
  83.7493443  75.9168089  76.7699285  76.9318464  77.7388524  65.6453660
  76.9089152  77.8376211  64.6935543  77.2419100  78.5853675  65.9670826
  79.5905841  79.7964679  69.7600274  80.5449095  79.7648621  69.6930206
  79.3918365  79.3355303  70.5750500  80.1805224  78.3665795  72.3271072
  80.9998113  78.8609874  72.3505909  80.4542031  77.4497763  72.2988640
  89.9371820  70.7576547  61.6899028  89.0497675  71.0426198  61.4719222
  90.3525809  70.5970311  60.8426305  93.2886356  70.7823068  65.4053367
  94.0646746  71.2719521  65.6777984  92.5634490  71.2081123  65.8625236
  95.7258914  71.4950688  66.4627307  96.3203405  71.2546424  65.7520616
  95.7985498  70.7757818  67.0900844  77.9456070  85.3384299  66.7770472
  77.8110538  84.5784699  66.2108470  77.5288132  86.0625198  66.3099261
  89.0815033  80.5221222  55.7847048  89.7850883  80.7271225  56.4004703
  88.3577682  81.0897984  56.0496131  89.9112843  76.2731083  61.9049318
  89.8548045  76.7299635  61.0656950  90.4641186  75.5121768  61.7272161
  93.7217649  72.0620815  62.7299437  93.4654584  71.6617451  63.5607645
  93.0970517  72.7764609  62.6049576  98.0329987  74.8016888  65.2370729
  97.4729545  74.8710078  66.0102291  97.4273491  74.6257873  64.5170225
  81.1025196  86.2353616  66.9888915  80.9857580  87.1799048  66.8867605
  80.2817642  85.9327177  67.3774714  90.9901731  80.9603751  57.8345508
  91.8247335  80.5284950  57.6522982  90.8286074  80.7885765  58.7622402
  90.6447623  77.4635865  59.2001847  90.5896427  77.2980136  58.2590291
  90.0193678  78.1711897  59.3564037  75.4340138  72.7003929  73.0263269
  76.0799001  72.1902883  73.5150494  75.2257289  73.4372611  73.6006694
  87.9593530  79.7684776  78.5255410  88.8284690  79.9425429  78.1642045
  87.4800281  80.5879193  78.4031139  83.9543748  66.9643974  58.7787165
  83.9422418  67.9085813  58.9355436  84.8467170  66.7814119  58.4846627
  82.1279710  86.8881877  70.2044843  83.0306957  86.9205488  70.5211338
  81.9017080  85.9582328  70.2191179  83.8833312  85.6412864  66.8654922
  82.9328943  85.6414726  66.7519294  84.1865798  84.8945599  66.3490957
  87.7695868  63.5586750  63.0333102  87.0028264  63.0045237  63.1789784
  88.1806573  63.6308619  63.8947254  79.7737629  69.8471546  77.1238283
  80.6369090  69.4908351  77.3341608  79.2003039  69.5085441  77.8113688
  99.6186006  91.4773402  67.9300684 100.2564416  91.3580150  67.2264024
  99.5006849  92.4254246  67.9888637  96.4275712  91.4300830  67.8662209
  96.0894224  91.3141895  66.9782744  97.2965480  91.0291996  67.8463215
  92.2862528  93.2836307  63.8559100  91.7227393  93.1926244  63.0875388
  92.1714923  92.4636211  64.3361593  96.9095495  92.5835682  73.8248415
  96.8984136  92.1888480  72.9528918  97.0716134  91.8501755  74.4182186
  89.8326960  94.7787498  66.6943320  90.6248252  94.4378323  66.2789620
  90.0723610  94.8882474  67.6145474  91.7917714  94.0396412  59.5660699
  92.5648590  93.4925399  59.4273575  92.1443112  94.9040661  59.7775161
  93.6302756  95.3672794  72.7727599  93.3392622  96.2718425  72.6574265
  94.2659740  95.4089322  73.4871668  94.5558963  92.7449643  69.3628958
  95.1522535  92.5205665  68.6485921  94.6133934  92.0034388  69.9654406
  94.1283991  90.1989078  57.1979149  94.3809512  89.6770599  56.4362612
  93.1908550  90.0355223  57.3005833  99.1727274  89.2024856  65.0053892
  99.9590363  88.7844279  64.6544309  99.4365979  90.1070948  65.1735541
  99.3437352  94.6397707  59.7042549  98.7083185  94.7132333  60.4163454
  99.0134758  95.2291305  59.0261628 104.5735701  89.1400089  65.9086871
 105.3060873  88.5699306  66.1424700 103.8175057  88.7521690  66.3493377
  93.8480280  92.1017184  59.4003524  93.7316538  91.4262087  60.0684608
  93.9582540  91.6149558  58.5835677  96.1911821  91.5627331  63.1050213
  95.8270028  91.0357952  63.8163135  97.0478937  91.1725800  62.9316699
 102.0961122  82.8521664  70.3681480 101.7644446  83.7217074  70.1442695
 101.5006735  82.5357948  71.0475510  95.8317308  86.5917231  58.1011562
  95.9991710  87.4597467  58.4682033  95.6414477  86.7544512  57.1772851
  98.5892641  95.0534210  69.7677392  98.2893364  95.9559248  69.6593200
  98.2443701  94.7866393  70.6198545  92.0405123  91.5048006  65.8014097
  91.1155619  91.3724220  66.0091788  92.2889536  92.2842226  66.2984039
 101.9889785  87.5716750  67.4474830 101.0806662  87.5032158  67.1533591
 101.9377381  88.0488695  68.2756655  95.8106529  89.0474888  59.0858229
  95.6906154  89.4931939  59.9243709  95.1159117  89.3960206  58.5271767
  89.4013934  91.1481280  66.6357886  89.5306315  91.4015759  67.5497297
  88.7211385  91.7408988  66.3162541  96.0630651  88.9906395  75.3909727
  95.2863985  89.5500315  75.3812592  96.7021214  89.4763178  75.9124597
 103.8551431  85.7733188  69.2252704 103.2125812  86.0665721  68.5792498
 103.3506360  85.6586108  70.0305900 101.5091595  89.5196361  59.9138563
 102.4209451  89.7523748  59.7386260 101.0001242  90.1033406  59.3513641
  94.3177023  91.7991849  74.9527694  95.0591707  92.3376893  74.6762517
  93.6114009  92.4258137  75.1099246  99.7932363  93.9420989  73.5499855
 100.2015719  93.5003400  72.8054488  99.0709624  93.3673617  73.8034048
  96.1463433  88.8793596  70.9233412  96.9924628  89.3033009  71.0668061
  96.0862070  88.2227220  71.6171975 100.1161177  94.5022180  67.3052144
  99.4870040  94.6667894  66.6028212  99.7286839  94.9163789  68.0763108
  99.2962878  86.5397964  72.5814586  99.0523810  87.2940025  72.0448862
  99.5722809  86.9183312  73.4161833 101.2501341  93.0836577  71.2591852
 101.4618236  93.7268337  70.5826233 101.2031089  92.2498893  70.7913782
  98.8527570  85.6954397  68.1628424  97.9912049  85.9935651  68.4545161
  98.8790004  85.9124796  67.2309456  95.6689139  94.2396588  64.5702229
  96.1327485  94.5184291  63.7806852  95.4045937  93.3380032  64.3875320
  92.5613220  93.7868069  67.5081993  93.1314577  94.2155338  66.8699477
  93.1521332  93.5050654  68.2066178  94.6058025  90.3619740  61.3791794
  95.3082069  90.8140784  61.8465721  94.2738654  89.7203559  62.0071688
  93.0538387  88.9531497  75.7543004  92.4237047  89.6347778  75.9878401
  92.9474475  88.8414578  74.8096142  88.3483359  88.6203293  66.6808928
  87.5582413  88.8760821  66.2049039  88.8394607  89.4351631  66.7860969
  90.2998105  88.9847872  63.6392405  89.5029268  89.0966566  64.1575900
  90.0723697  89.3234524  62.7733295  96.1303772  95.5092575  71.5874919
  96.1948205  95.9712983  72.4233091  95.4214696  94.8789940  71.7157229
  86.6321062  88.8733783  69.1123919  86.8829101  89.7580793  69.3781495
  87.1680611  88.6938385  68.3399011  92.3319130  83.2552263  78.1168255
  91.9386075  82.7018461  78.7915899  93.1485270  83.5662841  78.5074772
  89.2981187  94.6936121  62.0281825  89.8105708  95.4879371  62.1787389
  89.9503900  93.9962411  61.9615426  91.1076072  97.8101877  64.1104578
  91.2842700  98.7319842  63.9225562  91.9032906  97.4960296  64.5398958
  95.2487091  84.6710142  75.7088511  95.9896804  85.2717295  75.6292974
  95.4805013  83.9287780  75.1506554  90.3928429  89.8566509  73.9866741
  90.2781944  88.9551766  74.2873840  89.5372946  90.1030206  73.6351558
  92.2307387  99.3280051  70.1114920  92.7814813  99.1997114  69.3391914
  91.3918863  99.6274940  69.7609813  96.0274559  95.5931179  74.4559151
  96.5602895  94.8319467  74.2258459  95.4988640  95.3004831  75.1983306
  99.1944253  80.6991245  69.9852793  98.8508523  81.5892886  69.9091904
  99.5623216  80.5092902  69.1222378  87.2630104  93.0224775  62.8041395
  88.1005326  93.4321784  62.5875103  87.4408372  92.0824217  62.7741589
  99.1594536  90.6899856  58.4925228  98.6441160  91.4604460  58.7313616
  98.8871845  90.0164992  59.1158290  96.7441647  85.5349557  63.5510467
  95.8883244  85.1456407  63.3716105  97.1568599  85.6141517  62.6910252
  98.2740794  83.0695900  67.9502026  97.7705589  83.0326035  67.1369832
  98.5671401  83.9788643  68.0098683  94.5183680  83.1534630  66.9568208
  95.3836677  82.9577438  66.5974098  94.5861189  82.9244981  67.8837565
  98.9480839  88.5626948  60.3185009  98.6430975  88.8773097  61.1695153
  99.9011281  88.6408368  60.3612342  97.3927271  94.7217171  61.9677963
  96.8648633  93.9869931  61.6551201  96.8914774  95.4991848  61.7217932
  92.1245999  85.3836838  64.3284575  92.6989751  85.1612019  63.5957768
  92.7116981  85.4525532  65.0813176 101.1825576  91.2710564  65.1348951
 101.6957458  91.9040556  65.6370661 101.8326800  90.6711760  64.7692312
  92.4515586  87.4141299  58.3480460  91.6152898  87.7515985  58.6689735
  92.3120356  87.2790278  57.4107597  94.4268667  82.2578086  63.0559644
  93.7733079  81.9427104  62.4316259  94.3849141  81.6353827  63.7819467
  95.5379871  92.5397381  54.9712936  94.6306933  92.3086635  55.1704085
  96.0350903  91.7435001  55.1586918  97.6606407  88.7460020  67.3807292
  96.7428968  88.9674967  67.2228980  98.0766551  88.8206330  66.5218999
  98.4441455  90.1451436  62.5109972  99.1913274  90.6572833  62.2017094
  98.7133044  89.8235488  63.3714366  96.7168105  92.6409976  59.4936927
  95.8079324  92.3569009  59.5909396  96.7463189  93.0609055  58.6340233
 100.8920292  87.1808552  64.4928762 100.1543049  86.6685938  64.8239004
 101.1447065  86.7408934  63.6812038 100.9931919  79.9584804  65.0870531
 101.2990796  79.0982167  64.7996446 101.7184524  80.5502424  64.8869525
  87.2856275  90.3615490  63.4752129  87.0880675  89.7684851  62.7503195
  86.7302939  90.0567701  64.1928068  95.2652999  90.2538597  65.5946722
  95.3201609  89.3012433  65.5189198  94.4544201  90.4098036  66.0788020
  96.4144193  94.1818720  56.8325005  95.9763623  93.4654579  56.3730642
  97.1554634  94.4094835  56.2710097  93.2045359  88.8715657  63.3537101
  92.3913224  89.1709827  63.7602293  93.7004353  88.4771345  64.0711583
  98.8019570  89.3357481  72.1851995  99.1568958  89.5628954  73.0446460
  99.4491702  89.6675858  71.5629250  92.6959434  86.4434012  68.9698336
  93.3358813  86.3022771  68.2721299  91.8636964  86.1568526  68.5936938
  93.4719737  95.7436443  65.0833328  94.2660336  95.2486763  64.8815903
  92.7611430  95.2154306  64.7201034  89.7802501  89.8879524  61.1593081
  88.8500089  89.8263980  61.3763043  89.8759973  89.3655477  60.3629722
  89.6988050  86.4134337  63.7471323  89.9594867  87.3279670  63.6380483
  90.5205222  85.9458780  63.8967935  91.1712975  87.8272094  70.9170147
  91.8436029  87.6189457  70.2682796  90.3442762  87.6294180  70.4775379
  97.0738547  84.4534035  72.9335808  96.4266462  85.1523985  72.8400284
  97.8439563  84.8870179  73.3012056  97.2502682  92.2914800  70.9932628
  98.1794742  92.4425960  70.8201595  96.8293712  92.3798821  70.1381274
  96.0491013  96.3165465  68.7631165  95.9102099  95.9484249  69.6357103
  95.2605610  96.8313104  68.5915123  97.5996229  95.6947067  66.1520003
  97.2646061  95.6547837  67.0477653  97.1000174  95.0291783  65.6790413
  91.5740473  91.1014697  71.6772584  91.4360271  90.3694936  72.2784123
  92.4845396  91.0123597  71.3956772 100.5355420  93.0403102  56.4257063
  99.9184591  92.3149930  56.3290115 100.0671909  93.8012462  56.0824137
  94.2022773  90.8134657  71.1656264  94.9122392  90.1727849  71.1242882
  94.1592081  91.0647552  72.0882445  92.9151707  87.7999875  72.9851903
  92.3789064  87.3490613  73.6373500  92.3268416  87.9345783  72.2422368
  92.3253966  87.2588526  55.5478367  91.4483432  87.1377327  55.1840614
  92.8011719  86.4674604  55.2957256  83.8456106  92.0465686  65.6419874
  84.5327146  91.7327416  65.0540889  83.6904235  92.9507050  65.3687126
  88.6490828  86.9355882  70.0704898  88.5649017  86.3281552  69.3355308
  87.8273535  87.4264901  70.0714394  98.8214542  85.4209446  65.4375093
  99.3183242  84.6679408  65.1176163  98.0501524  85.4573762  64.8718302
  99.9044323  94.1781133  63.0113516  98.9700602  94.2982595  62.8418221
 100.0820991  93.2753600  62.7473526  95.4049511  87.5626829  65.1646777
  95.0347299  87.0097869  65.8527683  95.9008604  86.9584962  64.6121778
 103.2916874  90.0198452  63.5463550 103.7577327  90.8526444  63.4723853
 103.7424375  89.5543434  64.2508809  93.2338710  98.0224324  72.2601795
  93.9348169  98.6560807  72.4131190  92.7633825  98.3639055  71.4997435
 101.2633537  82.3879039  67.5854452 100.3496617  82.6183266  67.7536659
 101.6926639  82.4717483  68.4368484 101.0339996  90.5768931  70.0854346
 100.3811446  90.8244839  69.4306799 101.4120375  89.7633069  69.7516823
  97.0827569  91.3188742  76.5720383  96.4068206  91.2182872  77.2422758
  97.9055203  91.1627956  77.0356380  88.8306428  97.5560679  69.1932898
  89.4159865  96.8104367  69.3260802  88.6331266  97.8664636  70.0769562
  91.6845083 100.5911926  64.2095341  91.0155458 101.0758054  63.7259381
  91.5457953 100.8381147  65.1238719  83.4224082  90.1266279  67.9137341
  83.4608182  89.5929870  68.7074459  82.9164375  89.6001485  67.2948318
  90.8014845  84.9730820  71.4099884  90.8656171  85.8345650  70.9977281
  90.7381965  84.3604821  70.6772242  90.2767117  87.0453952  75.0572918
  90.9039156  86.6631029  75.6710442  89.4195036  86.8268154  75.4228610
  87.0532660  88.8530381  60.9891273  87.3486101  87.9441060  60.9358326
  86.1520696  88.8318121  60.6672275  90.5826907  86.9286378  66.9718821
  89.8613493  87.5422346  66.8326295  91.3720163  87.4644143  66.8935467
  93.3853221  84.2640804  73.2459473  93.9087622  84.5103101  74.0085782
  93.1665554  85.0960839  72.8262610  88.7820502  86.5344479  61.1130598
  88.4533208  85.6541858  60.9305704  89.1359872  86.4792148  62.0006987
  91.8962325  86.8217449  61.4806076  92.2358397  87.3503370  60.7584684
  92.3434445  87.1597855  62.2564642  94.5905766  85.2054499  70.9309144
  94.2502586  84.4062312  71.3329823  93.8844772  85.5056210  70.3585977
  95.2422237  82.2903812  69.3836467  96.0648307  81.8164290  69.2615357
  95.4860301  83.0694296  69.8835153  93.8830472  85.3192070  59.6799368
  94.6038834  85.6973323  59.1763085  93.2595776  86.0380947  59.7834346
  98.0261595  86.0237219  60.6157701  98.2425209  86.9061857  60.3146529
  97.5455662  85.6323433  59.8863343  92.7660816  88.9822932  67.1928445
  92.6205397  89.2963236  68.0852727  92.2886020  89.6007833  66.6399344
  96.4783330  86.4062821  69.2862462  96.2201108  87.3279891  69.2846793
  95.9468370  86.0093255  69.9762926  87.2406478  91.5228277  70.1316106
  86.6959946  92.2988085  70.2636381  88.1185828  91.8699081  69.9735228
  94.0294095  84.8539861  62.5096905  94.1510006  83.9256507  62.7087792
  93.7396137  84.8678547  61.5975220  96.8985285  82.5394771  65.6463625
  96.9206982  82.6034104  64.6915604  97.3153344  81.6999280  65.8404131
  88.0272500  90.6498173  73.0246263  87.2854236  90.7980808  73.6110894
  87.7065244  90.9106439  72.1613013  88.4729114  98.5363602  65.0556658
  89.2987134  98.2367374  64.6755301  88.1223166  97.7671224  65.5046447
  93.4410647  97.8890070  67.1254331  92.8190656  97.2260775  66.8256559
  94.1115514  97.9151202  66.4427979  86.6737719  96.4549928  66.0145591
  85.8369627  96.0272103  65.8329593  86.6461364  96.6482372  66.9516383
  93.5135175  86.3671858  76.7186837  93.5623330  87.2433981  76.3364607
  94.0557689  85.8249251  76.1458481  93.0024154  96.4393993  60.6012792
  93.1512274  97.1229458  59.9479465  93.8090597  96.4199083  61.1162248
 101.4091658  89.7436376  74.6280010 102.3101520  89.6042841  74.3364008
 101.4839632  89.9090831  75.5678187  95.7434463  87.1203231  73.4733196
  94.8737772  87.4136797  73.2015785  95.9793943  87.7043676  74.1940460
 103.8693280  91.3035004  72.0242783 104.3447402  91.4962650  71.2161634
 102.9458846  91.3594190  71.7786166  90.7576787  92.4659171  61.6073861
  90.5122829  91.5621501  61.8054071  90.9272701  92.4676322  60.6653339
  98.4473497  83.3382847  70.9898617  98.9655441  84.0743874  70.6645105
  98.0928630  83.6446841  71.8245376  90.0272434  88.1987529  59.1060022
  89.3341679  88.2731884  58.4500058  89.7824186  87.4347872  59.6281539
  98.6986091  79.7583130  66.5099513  98.9787845  79.0906319  67.1359940
  99.4836698  79.9512226  65.9974177 102.5694949  88.1800764  70.2571088
 103.5212372  88.2798862  70.2783312 102.3998400  87.3879033  70.7669173
 100.5909329  85.2656347  70.4430489  99.9959261  85.5461360  69.7476978
 100.3059025  85.7550248  71.2147230  96.8866358  90.2702937  55.4140592
  97.8325463  90.1409145  55.4829010  96.5080603  89.5317599  55.8910020
 105.1977516  88.1917927  69.4171671 104.6816564  87.4076384  69.2301600
 106.0817464  87.8636644  69.5818191 102.8588242  81.9358943  65.3767484
 102.6613064  81.6274031  66.2610816 103.4687948  82.6620582  65.5065414
  95.0709275  88.1952913  55.3495477  94.1640730  87.8986026  55.4258191
  95.3485256  87.8982731  54.4829763  85.9887215  89.5159276  65.7994524
  85.6690000  88.6624585  65.5068898  85.4420644  89.7307855  66.5552491
  89.7667123  92.2321717  69.5164030  89.9853133  93.1638825  69.5352064
  90.1792897  91.8729692  70.3018834  96.6871341  82.7389803  61.5039718
  95.8772069  82.3936888  61.8794965  97.3755758  82.4297346  62.0927330
  98.6161889  81.8167850  63.1264015  99.1692928  82.2363303  63.7854038
  98.8531975  80.8903598  63.1686971  94.6394988  87.8054923  78.9066779
  94.5391715  88.7549280  78.8378870  94.4216530  87.4773162  78.0342849
  93.8408060  85.0539848  55.4907456  94.7027224  85.3794747  55.7503274
  94.0258404  84.2671344  54.9780522  85.8575475  93.1362188  67.7687645
  85.1638947  92.7216141  67.2557600  86.6048466  93.1782724  67.1721064
 101.9940696  83.9268375  62.6342679 101.4139365  84.5853179  62.2520732
 101.7276629  83.1045719  62.2230097 100.4444263  83.3273432  64.8364000
 100.9444041  83.4389967  64.0278319 101.0879870  83.0234485  65.4764808
  94.5026258  91.2352062  77.7231841  94.0193340  92.0352422  77.9295730
  94.5887197  91.2460007  76.7699285  87.7712218  93.0680442  65.6453660
  87.7482906  93.1668129  64.6935543  88.0812855  93.9145592  65.9670826
  90.4299596  95.1256597  69.7600274  91.3842849  95.0940539  69.6930206
  90.2312119  94.6647220  70.5750500  91.0198978  93.6957713  72.3271072
  91.8391867  94.1901791  72.3505909  91.2935786  92.7789681  72.2988640
 100.7765574  86.0868465  61.6899028  99.8891429  86.3718116  61.4719222
 101.1919563  85.9262228  60.8426305 104.1280110  86.1114986  65.4053367
 104.9040500  86.6011438  65.6777984 103.4028245  86.5373040  65.8625236
  88.7849825 100.6676216  66.7770472  88.6504293  99.9076617  66.2108470
  88.3681887 101.3917116  66.3099261 100.7506598  91.6023001  61.9049318
 100.6941799  92.0591552  61.0656950 101.3034940  90.8413686  61.7272161
 104.5611404  87.3912733  62.7299437 104.3048338  86.9909369  63.5607645
 103.9364272  88.1056527  62.6049576 101.4841377  92.7927782  59.2001847
 101.4290181  92.6272054  58.2590291 100.8587433  93.5003815  59.3564037
  86.2733892  88.0295847  73.0263269  86.9192756  87.5194801  73.5150494
  86.0651043  88.7664528  73.6006694  94.7937503  82.2935891  58.7787165
  94.7816173  83.2377731  58.9355436  95.6860925  82.1106037  58.4846627
  98.6089622  78.8878668  63.0333102  97.8422018  78.3337155  63.1789784
  99.0200327  78.9600537  63.8947254  90.6131383  85.1763464  77.1238283
  91.4762845  84.8200269  77.3341608  90.0396794  84.8377359  77.8113688
  38.0893756  -6.3561159  50.5804407  37.5258622  -6.4471222  49.8120694
  37.9746152  -7.1761254  51.0606899  35.6358188  -4.8609967  53.4188627
  36.4279480  -5.2019143  53.0034926  35.8754839  -4.7514992  54.3390780
  43.6693315  -2.6890191  45.8918872  43.0181295  -2.1036111  45.5052885
  44.4637678  -2.1583996  45.9513909  37.5948942  -5.6001054  46.2906006
  38.3679818  -6.1472067  46.1518882  37.9474341  -4.7356805  46.5020467
  39.4333985  -4.2724672  59.4972905  39.1423851  -3.3679041  59.3819572
  40.0690969  -4.2308144  60.2116975  45.1468580  -4.9999759  46.4287856
  44.5114413  -4.9265133  47.1408761  44.8165987  -4.4106160  45.7506935
  44.3923870  -4.5863256  56.4922699  44.0924593  -3.6838217  56.3838506
  44.0474930  -4.8531073  57.3443852  37.8436351  -8.1349459  52.5259403
  36.9186848  -8.2673245  52.7337095  38.0920765  -7.3555240  53.0229346
  35.2045163  -8.4916186  53.3603192  35.3337544  -8.2381707  54.2742604
  34.5242614  -7.8988478  53.0407847  39.3744650   2.1781064  49.4593667
  39.2968679   3.1288889  49.5382147  38.7706293   1.8326937  50.1168593
  45.9192406  -5.1375286  54.0297451  45.2901269  -4.9729572  53.3273519
  45.5318068  -4.7233676  54.8008415  41.4720368  -5.4000878  51.2947536
  41.9358714  -5.1213175  50.5052158  41.2077166  -6.3017433  51.1120627
  38.3644449  -5.8529396  54.2327299  38.9345806  -5.4242128  53.5944784
  38.9552561  -6.1346812  54.9311485  48.1678398  -3.6788934  56.1559516
  48.9895841  -4.0808746  55.8742197  48.1640800  -3.7820700  57.1075631
  41.9335001  -4.1304890  58.3120226  41.9979434  -3.6684483  59.1478398
  41.2245925  -4.7607526  58.4402536  41.6483019  -2.4636783  48.1799206
  41.5128693  -1.6185247  48.6084054  42.1892831  -2.2617505  47.4165140
  35.1012416  -4.9461345  48.7527131  35.6136937  -4.1518095  48.9032696
  35.7535129  -5.6435054  48.6860733  36.9107301  -1.8295589  50.8349885
  37.0873929  -0.9077624  50.6470868  37.7064134  -2.1437169  51.2644264
  43.2751495  -1.8413216  62.3099548  42.8315349  -2.6276838  61.9920453
  43.9368709  -1.6534066  61.6443439  38.0338616  -0.3117415  56.8360227
  38.5846041  -0.4400351  56.0637221  37.1950092  -0.0122526  56.4855120
  45.3732733  -1.5610417  60.3380950  45.3551209  -0.7401535  59.8461219
  46.2952653  -1.6856341  60.5631091  41.8305787  -4.0466287  61.1804458
  42.3634124  -4.8077999  60.9503766  41.3019868  -4.3392635  61.9228613
  43.1958500  -4.9180295  48.6923270  42.6679862  -5.6527535  48.3796508
  42.6946003  -4.1405618  48.4463238  44.2479179   1.6097423  44.6154929
  43.5740878   1.9129120  45.2239887  44.6345001   2.4126503  44.2660386
  47.7518601  -3.3880900  49.9873401  47.2980928  -4.2289990  50.0438591
  47.1212568  -2.7519502  50.3248181  46.1951540  -1.5504403  50.9223219
  46.4874515  -0.9899346  50.2035585  46.7050161  -1.2575842  51.6776378
  42.2175421  -5.4578746  43.5570312  41.7794851  -6.1742887  43.0975949
  42.9585862  -5.2302631  42.9955403  41.1585165  -0.7724052  52.0116672
  41.1161344  -0.5463206  51.0825204  42.0747864  -1.0060678  52.1602473
  39.2750966  -3.8961023  51.8078635  40.0691565  -4.3910703  51.6061210
  38.5642659  -4.4243160  51.4446340  44.0945811  -1.5142928  56.1591002
  44.1482833  -0.9451991  56.9268718  43.2260592  -1.3441043  55.7945040
  46.2848574  -4.9214578  62.7331668  46.1334080  -5.1504027  61.8161752
  46.2753254  -3.9643977  62.7463013  41.8522242  -3.3232001  55.4876472
  41.7133328  -3.6913217  56.3602410  41.0636838  -2.8084362  55.3160430
  42.4470394   1.7777095  46.8302008  42.6222150   1.3065139  47.6447631
  41.7603182   2.4042862  47.0583269  43.4027457  -3.9450398  52.8765310
  43.0677290  -3.9849628  53.7722960  42.9031403  -4.6105683  52.4035720
  47.9940781  -1.8895456  60.8108150  47.9353327  -2.5736236  60.1438733
  48.3960299  -1.1476466  60.3588776  37.0131480   4.9266458  53.6041869
  37.2528078   5.5584982  54.2820887  36.1700676   4.5754498  53.8907228
  41.5259341   0.7345581  56.0083373  41.4529513   1.5400552  56.5202677
  41.0836734   0.9337546  55.1831394  41.3149121  -0.0282649  49.5186194
  40.5316643   0.5139031  49.6124419  42.0141866   0.4891330  49.9180435
  43.9858025   0.6332415  58.1641531  44.6985997   1.2679879  58.0917433
  43.4948054   0.7296281  57.3481533  39.0369938  -1.6173142  58.9847102
  39.7379398  -0.9836659  59.1376496  38.5665053  -1.2758410  58.2242741
  47.1624334  -3.2755192  47.2695009  47.4384178  -3.3898598  48.1788883
  46.2928833  -3.6737707  47.2307182  43.7978398   0.9731159  50.9127823
  43.9800793   0.1552815  51.3755575  44.6211384   1.1898851  50.4752713
  44.1320564  -0.1000656  48.1742871  44.6608330  -0.6108202  47.5613033
  44.3948783  -0.4158126  49.0388404  34.6337656  -2.0836787  55.9178205
  35.2191093  -2.8293099  56.0506109  34.4362495  -1.7732830  56.8014869
  37.4876312   0.9514460  50.9340647  36.8186687   1.4360588  50.4504687
  37.3489181   1.1983681  51.8484026  41.6281580   2.9858204  57.5323306
  42.1799888   3.1489825  58.2972391  41.9687774   3.5762642  56.8603330
  46.4792455  -2.1880539  63.3871960  47.0232359  -1.5750580  62.8926915
  45.8979299  -1.6300960  63.9038973  44.7649968   0.9340180  54.5186988
  44.6401107   0.1329919  54.0097933  45.4229059   1.4286373  54.0300958
  46.8284876  -1.2650800  56.1466538  45.8815211  -1.3845449  56.0744864
  47.1767649  -2.1528302  56.2292799  43.8331309  -1.4698084  52.3470890
  43.6856272  -2.3981377  52.5278460  44.6584803  -1.4477993  51.8627965
  47.4365431  -0.6469525  53.4335763  48.3611979  -0.8526664  53.2960214
  47.2680734  -0.8953124  54.3425104  47.2260747  -0.1283858  48.7897854
  47.3997625  -0.6937436  48.0371707  47.7189639   0.6717037  48.6077344
  48.2135920  -0.8117094  45.8894752  48.9086824  -0.1910401  46.1082067
  48.5559070  -1.6621742  46.1647130  41.7747392   0.5516686  59.5471960
  42.0834518   0.3065832  60.4194659  42.5722874   0.7563324  59.0590830
  41.7968004   2.7054595  51.7777336  41.3572994   2.2130974  52.4710193
  42.5476121   2.1627563  51.5369412  34.2760343  -1.1033864  51.7801964
  35.1018363  -1.4030092  51.4000608  33.9254395  -1.8726241  52.2291753
  39.2441876  -1.7507396  53.8499638  38.6221885  -2.4136691  53.5501866
  39.9146743  -1.7246264  53.1673286  32.4768948  -3.1847537  52.7390898
  31.6400856  -3.6125363  52.5574899  32.4492593  -2.9915094  53.6761689
  49.8021249  -2.7284484  62.7233281  49.0116793  -2.7460346  62.1837781
  49.5654604  -2.1896191  63.4782318  38.8055383  -3.2003472  47.3258099
  38.9543503  -2.5168008  46.6724771  39.6121826  -3.2198382  47.8407554
  36.5608016  -7.1738295  48.3319168  36.3154058  -8.0775965  48.5299378
  36.7303930  -7.1721144  47.3898646  42.3050788  -0.7055342  44.7969846
  41.7324755  -0.0865155  44.3440318  42.8783582  -0.1555980  45.3309768
  45.5248048  -0.4218192  45.9278428  46.4578721  -0.4872630  46.1311304
  45.4371261   0.4138075  45.4692961  48.1536065  -1.1052321  42.8882376
  48.0749696  -1.4392458  43.7818134  48.9745732  -0.6130554  42.8873848
  42.5736279  -5.3176783  63.5986556  43.4939289  -5.1398184  63.7926602
  42.5385862  -6.2620738  63.4466255  35.5698352  -7.4075748  56.2409337
  35.7884362  -6.4758641  56.2597371  35.9824126  -7.7667774  57.0264141
  33.5743447  -6.5717024  52.3698967  33.5514135  -6.4729337  51.4180850
  33.8844083  -5.7251873  52.6916133  36.2330825  -4.5140869  56.4845581
  37.1874078  -4.5456927  56.4175513  36.0343348  -4.9750245  57.2995807
  36.8230207  -5.9439753  59.0516379  37.6423096  -5.4495674  59.0751216
  37.0967015  -6.8607785  59.0233946  34.5881053   1.0278750  53.5015779
  34.4535521   0.2679151  52.9353777  34.1713116   1.7519650  53.0344568
  45.7240016  -3.7884326  42.5092354  46.4275867  -3.5834324  43.1250010
  45.0002665  -3.2207564  42.7741438  37.7450179   1.9248067  53.7134222
  37.6282564   2.8693500  53.6112912  36.9242626   1.6221629  54.1020021
  47.6326714  -3.3501797  44.5590814  48.4672318  -3.7820598  44.3768289
  47.4711057  -3.5219783  45.4867709  44.6018513  -4.5420772  65.2500716
  45.4709673  -4.3680119  64.8887351  44.1225265  -3.7226355  65.1276446
  38.7704693   2.5776329  56.9290150  39.6731940   2.6099940  57.2456645
  38.5442064   1.6476780  56.9436486  40.5258296   1.3307316  53.5900229
  39.5753927   1.3309177  53.4764601  40.8290782   0.5840050  53.0736263
  56.2610989   7.1667854  54.6545991  56.8989399   7.0474602  53.9509331
  56.1431832   8.1148698  54.7133943  53.0700695   7.1195282  54.5907516
  52.7319207   7.0036347  53.7028051  53.9390463   6.7186447  54.5708522
  48.9287511   8.9730759  50.5804407  48.3652376   8.8820696  49.8120694
  48.8139906   8.1530663  51.0606899  53.5520478   8.2730134  60.5493721
  53.5409119   7.8782932  59.6774225  53.7141118   7.5396207  61.1427493
  46.4751943  10.4681950  53.4188627  47.2673235  10.1272775  53.0034926
  46.7148593  10.5776925  54.3390780  54.5087070  12.6401726  45.8918872
  53.8575049  13.2255807  45.5052885  55.3031432  13.1707921  45.9513909
  48.4342697   9.7290864  46.2906006  49.2073573   9.1819851  46.1518882
  48.7868096  10.5935113  46.5020467  50.2727739  11.0567246  59.4972905
  49.9817605  11.9612877  59.3819572  50.9084724  11.0983774  60.2116975
  51.1983946   8.4344094  56.0874265  51.7947519   8.2100117  55.3731228
  51.2558918   7.6928840  56.6899713  50.7708975   5.8883530  43.9224456
  51.0234495   5.3665051  43.1607919  49.8333534   5.7249675  44.0251139
  55.8152257   4.8919308  51.7299199  56.6015347   4.4738731  51.3789616
  56.0790962   5.7965400  51.8980847  55.9862335  10.3292158  46.4287856
  55.3508168  10.4026785  47.1408761  55.6559741  10.9185757  45.7506935
  61.2160685   4.8294541  52.6332178  61.9485857   4.2593758  52.8670007
  60.4600040   4.4416142  53.0738683  50.4905263   7.7911636  46.1248831
  50.3741521   7.1156539  46.7929915  50.6007523   7.3044010  45.3080984
  52.8336804   7.2521783  49.8295520  52.4695012   6.7252404  50.5408442
  53.6903920   6.8620252  49.6562005  52.4742291   2.2811683  44.8256869
  52.6416694   3.1491919  45.1927340  52.2839460   2.4438964  43.9018158
  55.2317624  10.7428661  56.4922699  54.9318348  11.6453700  56.3838506
  54.8868684  10.4760845  57.3443852  48.6830106   7.1942458  52.5259403
  47.7580602   7.0618672  52.7337095  48.9314519   7.9736678  53.0229346
  58.6314768   3.2611202  54.1720136  57.7231646   3.1926610  53.8778897
  58.5802364   3.7383147  55.0001962  52.4531512   4.7369340  45.8103535
  52.3331137   5.1826391  46.6489016  51.7584101   5.0854658  45.2517074
  46.0438917   6.8375732  53.3603192  46.1731298   7.0910211  54.2742604
  45.3636368   7.4303440  53.0407847  50.2138404  17.5072982  49.4593667
  50.1362434  18.4580807  49.5382147  49.6100048  17.1618854  50.1168593
  52.7055634   4.6800847  62.1155034  51.9288968   5.2394767  62.1057898
  53.3446197   5.1657630  62.6369904  60.4976415   1.4627640  55.9498010
  59.8550795   1.7560173  55.3037805  59.9931343   1.3480560  56.7551207
  58.1516578   5.2090813  46.6383869  59.0634434   5.4418200  46.4631567
  57.6426225   5.7927857  46.0758948  50.9602006   7.4886301  61.6773001
  51.7016691   8.0271345  61.4007824  50.2538992   8.1152589  61.8344552
  56.4357346   9.6315441  60.2745162  56.8440702   9.1897852  59.5299794
  55.7134608   9.0568069  60.5279355  52.7888416   4.5688048  57.6478719
  53.6349611   4.9927461  57.7913368  52.7287054   3.9121672  58.3417282
  56.7586161  10.1916632  54.0297451  56.1295023  10.3562346  53.3273519
  56.3711823  10.6058241  54.8008415  60.6375393  11.1271069  51.3841815
  59.9526431  11.5069971  50.8338848  60.7219242  11.7366396  52.1173762
  55.9387861   2.2292416  59.3059893  55.6948793   2.9834477  58.7694168
  56.2147792   2.6077764  60.1407140  57.8926324   8.7731029  57.9837158
  58.1043219   9.4162788  57.3071539  57.8456072   7.9393345  57.5159088
  55.4952553   1.3848849  54.8873730  54.6337032   1.6830103  55.1790468
  55.5214988   1.6019248  53.9554763  52.3114123   9.9291040  51.2947536
  52.7752468  10.2078743  50.5052158  52.0470921   9.0274484  51.1120627
  49.2038204   9.4762521  54.2327299  49.7739561   9.9049790  53.5944784
  49.7946315   9.1945106  54.9311485  51.2483009   6.0514192  48.1037101
  51.9507052   6.5035236  48.5711027  50.9163637   5.4098011  48.7316994
  49.6963370   4.6425949  62.4788311  49.0662031   5.3242230  62.7123707
  49.5899458   4.5309030  61.5341449  44.9908343   4.3097745  53.4054235
  44.2007397   4.5655273  52.9294345  45.4819590   5.1246083  53.5106275
  59.0072152  11.6502984  56.1559516  59.8289596  11.2483171  55.8742197
  59.0034555  11.5471218  57.1075631  46.9423088   4.6742324  50.3637711
  46.1454251   4.7861018  50.8821207  46.7148680   5.0128976  49.4978602
  52.7728756  11.1987027  58.3120226  52.8373188  11.6607434  59.1478398
  52.0639679  10.5684392  58.4402536  43.2746046   4.5628235  55.8369225
  43.5254084   5.4475245  56.1026801  43.8105594   4.3832837  55.0644317
  67.0978145   7.9941732  52.5044487  66.3441854   7.4249130  52.3488491
  67.2325686   7.9604397  53.4515122  52.4876773  12.8655135  48.1799206
  52.3522448  13.7106670  48.6084054  53.0286586  13.0674412  47.4165140
  48.9744113  -1.0553285  64.8413562  48.5811058  -1.6087087  65.5161206
  49.7910253  -0.7442707  65.2320079  45.9406171  10.3830573  48.7527131
  46.4530691  11.1773823  48.9032696  46.5928883   9.6856863  48.6860733
  47.7501055  13.4996329  50.8349885  47.9267684  14.4214294  50.6470868
  48.5457889  13.1854748  51.2644264  51.8912074   0.3604594  62.4333818
  52.6321787   0.9611747  62.3538281  52.1229997  -0.3817769  61.8751861
  47.0353412   5.5460961  60.7112048  46.9206927   4.6446218  61.0119147
  46.1797930   5.7924658  60.3596864  54.1145250  13.4878701  62.3099548
  53.6709104  12.7015080  61.9920453  54.7762463  13.6757852  61.6443439
  48.8732371  15.0174503  56.8360227  49.4239796  14.8891566  56.0637221
  48.0343847  15.3169392  56.4855120  56.2126488  13.7681501  60.3380950
  56.1944963  14.5890382  59.8461219  57.1346408  13.6435576  60.5631091
  52.6699542  11.2825631  61.1804458  53.2027879  10.5213919  60.9503766
  52.1413623  10.9899282  61.9228613  43.9055087   8.7119227  49.5286702
  44.7430309   9.1216235  49.3120410  44.0833355   7.7718669  49.4986896
  55.8019519   6.3794308  45.2170535  55.2866143   7.1498912  45.4558922
  55.5296828   5.7059444  45.8403596  53.3866631   1.2244008  50.2755773
  52.5308227   0.8350859  50.0961412  53.7993582   1.3035969  49.4155559
  54.9165777  -1.2409648  54.6747333  54.4130573  -1.2779513  53.8615138
  55.2096384  -0.3316906  54.7343990  51.1608663  -1.1570919  53.6813515
  52.0261660  -1.3528110  53.3219404  51.2286172  -1.3860567  54.6082872
  60.7753794   9.1326662  47.1523708  59.9983236   8.7937822  46.7078870
  61.4545275   9.1379286  46.4778673  55.5905823   4.2521400  47.0430316
  55.2855958   4.5667549  47.8940459  56.5436265   4.3302820  47.0857649
  54.0352255  10.4111623  48.6923270  53.5073616   9.6764383  48.3796508
  53.5339757  11.1886299  48.4463238  59.0145101   8.6060644  53.8090316
  58.3568775   9.2959905  53.8970445  59.8185500   8.9957076  54.1524303
  48.7670982   1.0731289  51.0529882  49.3414734   0.8506471  50.3203075
  49.3541965   1.1419984  51.8058483  57.8250559   6.9605016  51.8594258
  58.3382441   7.5935008  52.3615968  58.4751783   6.3606212  51.4937618
  49.0940569   3.1035750  45.0725767  48.2577881   3.4410437  45.3935042
  48.9545339   2.9684730  44.1352904  51.0693650  -2.0527462  49.7804951
  50.4158062  -2.3678445  49.1561566  51.0274124  -2.6751721  50.5064774
  52.1804855   8.2291833  41.6958243  51.2731916   7.9981087  41.8949392
  52.6775887   7.4329453  41.8832225  55.0872934  16.9389341  44.6154929
  54.4134632  17.2421037  45.2239887  55.4738756  17.7418421  44.2660386
  54.3031390   4.4354472  54.1052599  53.3853952   4.6569419  53.9474287
  54.7191534   4.5100782  53.2464306  55.0866438   5.8345888  49.2355279
  55.8338257   6.3467285  48.9262401  55.3558028   5.5129940  50.0959672
  53.3593088   8.3304428  46.2182233  52.4504307   8.0463461  46.3154703
  53.3888172   8.7503507  45.3585540  58.5912356  11.9411018  49.9873401
  58.1374683  11.1001928  50.0438591  57.9606322  12.5772416  50.3248181
  57.5345275   2.8703004  51.2174068  56.7968032   2.3580390  51.5484311
  57.7872049   2.4303385  50.4057345  57.0345295  13.7787514  50.9223219
  57.3268269  14.3392572  50.2035585  57.5443915  14.0716075  51.6776378
  43.9281259   6.0509942  50.1997435  43.7305658   5.4579303  49.4748502
  43.3727923   5.7462153  50.9173374  51.9077982   5.9433049  52.3192029
  51.9626592   4.9906885  52.2434505  51.0969184   6.0992488  52.8033327
  49.8470342   4.5610109  50.0782407  49.0338208   4.8604279  50.4847600
  50.3429336   4.1665797  50.7956890  51.9978920  14.5567866  52.0116672
  51.9555099  14.7828712  51.0825204  52.9141619  14.3231240  52.1602473
  55.4444554   5.0251933  58.9097301  55.7993941   5.2523406  59.7691767
  56.0916685   5.3570310  58.2874557  61.1742291   8.1470369  49.6146630
  61.0360189   8.3371965  48.6867820  60.8178510   8.9089752  50.0714681
  49.3384417   2.1328464  55.6943642  49.9783796   1.9917223  54.9966606
  48.5061947   1.8462978  55.3182244  61.2011670  10.2146896  54.6257902
  61.6348177  10.1222185  55.4740956  61.9143251  10.1904396  53.9877918
  50.1144721  11.4330895  51.8078635  50.9085319  10.9381215  51.6061210
  49.4036413  10.9048758  51.4446340  54.9339565  13.8148990  56.1591002
  54.9876588  14.3839926  56.9268718  54.0654347  13.9850875  55.7945040
  46.4227484   5.5773976  47.8838388  45.4925072   5.5158432  48.1008350
  46.5184956   5.0549929  47.0875029  46.3413033   2.1028789  50.4716629
  46.6019851   3.0174122  50.3625790  47.1630206   1.6353232  50.6213242
  47.8137959   3.5166546  57.6415454  48.4861012   3.3083908  56.9928103
  46.9867745   3.3188632  57.2020686  62.0627220  10.2570597  57.1590787
  62.2563110  11.1616407  57.4050062  61.9627838   9.7978016  57.9929372
  53.7163531   0.1428487  59.6581115  53.0691446   0.8418437  59.5645591
  54.4864546   0.5764631  60.0257363  57.1242329  10.4077339  62.7331668
  56.9727835  10.1787891  61.8161752  57.1147008  11.3647941  62.7463013
  53.8927665   7.9809252  57.7177934  54.8219725   8.1320412  57.5446902
  53.4718695   8.0693273  56.8626581  52.6915997  12.0059917  55.4876472
  52.5527082  11.6378701  56.3602410  51.9030593  12.5207556  55.3160430
  53.2864149  17.1069013  46.8302008  53.4615904  16.6357056  47.6447631
  52.5996937  17.7334779  47.0583269  54.2421212  11.3841519  52.8765310
  53.9071045  11.3442289  53.7722960  53.7425158  10.7186235  52.4035720
  48.2165456   6.7909149  58.4017891  48.0785254   6.0589388  59.0029430
  49.1270379   6.7018049  58.1202079  57.1780404   8.7297554  43.1502369
  56.5609574   8.0044382  43.0535422  56.7096892   9.4906914  42.8069444
  50.8447757   6.5029109  57.8901571  51.5547375   5.8622301  57.8488189
  50.8017065   6.7542003  58.8127751  58.8334535  13.4396462  60.8108150
  58.7747081  12.7555682  60.1438733  59.2354054  14.1815452  60.3588776
  49.5576691   3.4894326  59.7097210  49.0214048   3.0385065  60.3618806
  48.9693399   3.6240235  58.9667674  47.8525234  20.2558376  53.6041869
  48.0921832  20.8876900  54.2820887  47.0094430  19.9046416  53.8907228
  48.9678949   2.9482978  42.2723674  48.0908416   2.8271779  41.9085920
  49.4436703   2.1569056  42.0202562  58.8351942  11.4036046  59.0422129
  57.9478721  11.0661968  59.1648528  59.4050494  10.6719077  59.2790895
  40.4881090   7.7360138  52.3665181  41.1752129   7.4221868  51.7786196
  40.3329218   8.6401502  52.0932432  45.2915812   2.6250334  56.7950204
  45.2074000   2.0176004  56.0600614  44.4698518   3.1159352  56.7959701
  52.3653096  16.0637498  56.0083373  52.2923267  16.8692470  56.5202677
  51.9230489  16.2629464  55.1831394  52.1542875  15.3009268  49.5186194
  51.3710397  15.8430948  49.6124419  52.8535621  15.8183248  49.9180435
  55.4639526   1.1103898  52.1620400  55.9608225   0.3573860  51.8421470
  54.6926507   1.1468214  51.5963609  63.3169283   6.8144263  53.8038691
  63.3059159   7.6968979  53.4332624  62.4486662   6.4615814  53.6093228
  56.5469306   9.8675585  49.7358823  55.6125585   9.9877047  49.5663527
  56.7245975   8.9648052  49.4718833  52.0474494   3.2521281  51.8892084
  51.6772282   2.6992321  52.5772990  52.5433587   2.6479414  51.3367084
  59.9341858   5.7092904  50.2708857  60.4002310   6.5420896  50.1969160
  60.3849358   5.2437886  50.9754116  49.8763693  13.7118776  58.9847102
  50.5773152  14.3455259  59.1376496  49.4058808  14.0533507  58.2242741
  58.0018089  12.0536725  47.2695009  58.2777933  11.9393320  48.1788883
  57.1322587  11.6554210  47.2307182  57.6764979   6.2663383  56.8099652
  57.0236429   6.5139291  56.1552105  58.0545359   5.4527521  56.4762130
  54.6372153  16.3023076  50.9127823  54.8194547  15.4844732  51.3755575
  55.4605139  16.5190769  50.4752713  54.9714318  15.2291261  48.1742871
  55.5002085  14.7183716  47.5613033  55.2342538  14.9133792  49.0388404
  53.7252552   7.0083194  63.2965690  53.0493189   6.9077324  63.9668065
  54.5480186   6.8522408  63.7601687  45.4731411  13.2455131  55.9178205
  46.0584848  12.4998819  56.0506109  45.2756249  13.5559087  56.8014869
  48.3270066  16.2806378  50.9340647  47.6580441  16.7652506  50.4504687
  48.1882936  16.5275599  51.8484026  40.0649066   5.8160731  54.6382648
  40.1033165   5.2824322  55.4319766  39.5589359   5.2895936  54.0193625
  52.4675335  18.3150122  57.5323306  53.0193643  18.4781743  58.2972391
  52.8081528  18.9054559  56.8603330  47.4439828   0.6625271  58.1345190
  47.5081155   1.5240102  57.7222588  47.3806948   0.0499273  57.4017549
  46.9192101   2.7348404  61.7818224  47.5464139   2.3525481  62.3955749
  46.0620019   2.5162606  62.1473917  57.3186209  13.1411379  63.3871960
  57.8626113  13.7541337  62.8926915  56.7373054  13.6990958  63.9038973
  43.6957643   4.5424833  47.7136579  43.9911084   3.6335512  47.6603633
  42.7945679   4.5212573  47.3917582  55.6043722  16.2632097  54.5186988
  55.4794862  15.4621837  54.0097933  56.2622813  16.7578291  54.0300958
  47.2251890   2.6180830  53.6964128  46.5038476   3.2316797  53.5571601
  48.0145146   3.1538595  53.6180774  57.6678630  14.0641117  56.1466538
  56.7208966  13.9446468  56.0744864  58.0161404  13.1763615  56.2292799
  50.0278204  -0.0464744  59.9704780  50.5512606   0.1997553  60.7331089
  49.8090537   0.7855291  59.5507917  45.4245485   2.2238931  47.8375904
  45.0958191   1.3436310  47.6551010  45.7784856   2.1686599  48.7252294
  54.6725064  13.8593833  52.3470890  54.5250026  12.9310541  52.5278460
  55.4978557  13.8813924  51.8627965  48.5387308   2.5111901  48.2051382
  48.8783381   3.0397822  47.4829990  48.9859429   2.8492307  48.9809949
  58.2759186  14.6822392  53.4335763  59.2005733  14.4765254  53.2960214
  58.1074489  14.4338793  54.3425104  51.2330749   0.8948951  57.6554450
  50.8927569   0.0956764  58.0575130  50.5269755   1.1950662  57.0831283
  51.8847221  -2.0201736  56.1081773  52.7073290  -2.4941258  55.9860664
  52.1285284  -1.2411253  56.6080460  50.5255455   1.0086522  46.4044675
  51.2463818   1.3867775  45.9008392  49.9020759   1.7275399  46.5079653
  54.6686578   1.7131671  47.3403007  54.8850192   2.5956309  47.0391835
  54.1880645   1.3217885  46.6108649  49.4085799   4.6717384  53.9173752
  49.2630380   4.9857687  54.8098033  48.9311003   5.2902285  53.3644650
  51.2682182   1.6619932  53.9654641  51.2543751   0.7661026  53.6286939
  51.9854610   1.6690596  54.5992927  53.1208313   2.0957273  56.0107769
  52.8626091   3.0174343  56.0092099  52.5893353   1.6987707  56.7008233
  58.0654502  15.2008060  48.7897854  58.2391379  14.6354482  48.0371707
  58.5583393  16.0008955  48.6077344  43.8831462   7.2122729  56.8561413
  43.3384930   7.9882537  56.9881687  44.7610811   7.5593533  56.6980534
  50.6719078   0.5434313  49.2342212  50.7934989  -0.3849041  49.4333099
  50.3821121   0.5572999  48.3220527  63.9193893   7.9644483  50.4088154
  64.3625039   7.2151808  50.0107277  63.0420403   7.9554619  50.0261886
  59.0529674  14.5174824  45.8894752  59.7480579  15.1381517  46.1082067
  59.3952824  13.6670175  46.1647130  44.6697483   6.3392625  59.7491570
  43.9279220   6.4875260  60.3356200  44.3490228   6.6000891  58.8858319
  60.9521097  11.9674530  47.4182083  61.4772422  12.3061802  46.6931403
  60.8643450  11.0321545  47.2345218  52.6141146  15.8808603  59.5471960
  52.9228273  15.6357750  60.4194659  53.4116628  16.0855242  59.0590830
  52.6361758  18.0346513  51.7777336  52.1966748  17.5422892  52.4710193
  53.3869875  17.4919481  51.5369412  45.1154097  14.2258054  51.7801964
  45.9412117  13.9261826  51.4000608  44.7648149  13.4565676  52.2291753
  50.0835630  13.5784522  53.8499638  49.4615640  12.9155227  53.5501866
  50.7540497  13.6045654  53.1673286  43.3162702  12.1444380  52.7390898
  42.4794611  11.7166555  52.5574899  43.2886348  12.3376824  53.6761689
  50.1560158   2.0566310  63.4432144  50.2048313   2.9328433  63.0609914
  50.6982672   1.5143703  62.8703787  60.6415003  12.6007433  62.7233281
  59.8510547  12.5831572  62.1837781  60.4048358  13.1395727  63.4782318
  60.7612879   9.4499900  60.0366010  60.8110883   9.2849907  60.9781533
  60.6526802   8.5827159  59.6463891  49.6449137  12.1288445  47.3258099
  49.7937258  12.8123910  46.6724771  50.4515581  12.1093535  47.8407554
  58.0516641   5.4330828  61.3525316  58.9526504   5.2937292  61.0609314
  58.1264615   5.5985282  62.2923494  52.3859446   2.8097682  60.1978503
  51.5162756   3.1031248  59.9261091  52.6218927   3.3938127  60.9185766
  62.2631075  11.8696841  60.2808031  61.9715884  12.2326822  61.1171492
  61.6503207  11.1563849  60.1021363  63.4626758   9.4349721  52.8010602
  64.2973649   9.8739525  52.9648162  63.5985886   8.9588374  51.9818847
  60.5118264   6.9929456  58.7488089  60.9872385   7.1857102  57.9406941
  59.5883829   7.0488642  58.5031473  47.4001770   8.1553623  48.3319168
  47.1547812   7.2515953  48.5299378  47.5697685   8.1570773  47.3898646
  55.0898480  -0.9722701  57.7143923  55.6080424  -0.2361674  57.3890412
  54.7353613  -0.6658707  58.5490682  46.6697418   3.8881981  45.8305329
  45.9766663   3.9626336  45.1745365  46.4249170   3.1242324  46.3526846
  53.1444543  14.6236576  44.7969846  52.5718510  15.2426763  44.3440318
  53.7177336  15.1735937  45.3309768  59.2119933   3.8695216  56.9816395
  60.1637355   3.9693314  57.0028619  59.0423383   3.0773484  57.4914479
  57.2334312   0.9550799  57.1675796  56.6384244   1.2355812  56.4722284
  56.9484009   1.4444700  57.9392537  56.3641803  14.9073726  45.9278428
  57.2972476  14.8419288  46.1311304  56.2765015  15.7429993  45.4692961
  58.9929819  14.2239596  42.8882376  58.9143451  13.8899460  43.7818134
  59.8139486  14.7161364  42.8873848  61.6908010   7.0901336  56.0958695
  61.6584330   6.1517336  56.2818378  62.3008634   7.1685372  55.3624519
  53.5291341   5.9597389  42.1385899  54.4750446   5.8303597  42.2074317
  53.1505586   5.2212050  42.6155327  61.8402499   3.8812379  56.1416978
  61.3241548   3.0970836  55.9546907  62.7242447   3.5531096  56.3063497
  67.5084560   8.1517342  55.2364731  68.2387949   7.8902631  55.7972435
  66.8991506   7.4146064  55.2766799  65.5899857   6.2925205  55.8339183
  64.8633021   6.1581170  55.2255674  65.1747144   6.6002034  56.6395901
  53.4130034  10.0115135  63.5986556  54.3333043  10.1893734  63.7926602
  53.3779617   9.0671180  63.4466255  51.7134258   3.8847365  42.0740784
  50.8065714   3.5880478  42.1503497  51.9910239   3.5877183  41.2075070
  42.6312199   5.2053728  52.5239830  42.3114983   4.3519037  52.2314204
  42.0845627   5.4202306  53.2797798  46.4092106   7.9216169  56.2409337
  46.6278116   8.8533277  56.2597371  46.8217880   7.5624144  57.0264141
  53.3296324  -1.5715745  48.2285025  52.5197052  -1.9168660  48.6040271
  54.0180741  -1.8808202  48.8172637  51.2819972   3.4949375  65.6312086
  51.1816699   4.4443732  65.5624177  51.0641514   3.1667614  64.7588156
  50.4833043   0.7434300  42.2152763  51.3452207   1.0689198  42.4748580
  50.6683387  -0.0434204  41.7025829  42.5000459   8.8256640  54.4932952
  41.8063930   8.4110593  53.9802906  43.2473450   8.8677176  53.8966371
  51.1451242   6.9246514  64.4477147  50.6618323   7.7246874  64.6541036
  51.2312181   6.9354459  63.4944591  44.4137201   8.7574894  52.3698967
  44.3907889   8.8562581  51.4180850  44.7237838   9.6040044  52.6916133
  47.0724579  10.8151049  56.4845581  48.0267833  10.7834991  56.4175513
  46.8737103  10.3541672  57.2995807  47.6623961   9.3852165  59.0516379
  48.4816850   9.8796243  59.0751216  47.9360769   8.4684133  59.0233946
  57.4190558   1.7762917  48.4144334  56.5316413   2.0612568  48.1964529
  57.8344547   1.6156680  47.5671611  60.7705094   1.8009438  52.1298673
  61.5465484   2.2905890  52.4023290  60.0453228   2.2267492  52.5870543
  63.2077652   2.5137057  53.1872614  63.8022143   2.2732793  52.4765922
  63.2804236   1.7944188  53.8146150  45.4274808  16.3570668  53.5015779
  45.2929276  15.5971069  52.9353777  45.0106870  17.0811568  53.0344568
  56.5633771  11.5407592  42.5092354  57.2669621  11.7457594  43.1250010
  55.8396420  12.1084354  42.7741438  57.3931581   7.2917453  48.6294624
  57.3366783   7.7486004  47.7902257  57.9459924   6.5308137  48.4517467
  61.2036387   3.0807185  49.4544744  60.9473321   2.6803820  50.2852952
  60.5789255   3.7950979  49.3294883  65.5148725   5.8203258  51.9616035
  64.9548283   5.8896447  52.7347597  64.9092228   5.6444243  51.2415532
  48.5843934  17.2539985  53.7134222  48.4676318  18.1985418  53.6112912
  47.7636380  16.9513547  54.1020021  58.4720468  11.9790121  44.5590814
  59.3066072  11.5471319  44.3768289  58.3104811  11.8072135  45.4867709
  58.1266361   8.4822234  45.9247154  58.0715164   8.3166506  44.9835598
  57.5012416   9.1898267  46.0809343  42.9158876   3.7190299  59.7508576
  43.5617739   3.2089252  60.2395801  42.7076027   4.4558980  60.3252001
  55.4412268  10.7871146  65.2500716  56.3103427  10.9611798  64.8887351
  54.9619019  11.6065563  65.1276446  51.4362486  -2.0169657  45.5032472
  51.4241156  -1.0727817  45.6600743  52.3285908  -2.1999511  45.2091933
  49.6098448  17.9068247  56.9290150  50.5125695  17.9391857  57.2456645
  49.3835818  16.9768698  56.9436486  51.3652050  16.6599234  53.5900229
  50.4147681  16.6601095  53.4764601  51.6684536  15.9131968  53.0736263
  47.2556367   0.8657916  63.8483590  48.1187828   0.5094720  64.0586915
  46.6821777   0.5271810  64.5358994  67.1004743  22.4959772  54.6545991
  67.7383153  22.3766519  53.9509331  66.9825586  23.4440616  54.7133943
  63.9094450  22.4487200  54.5907516  63.5712961  22.3328265  53.7028051
  64.7784218  22.0478365  54.5708522  64.3914233  23.6022052  60.5493721
  64.3802874  23.2074850  59.6774225  64.5534872  22.8688124  61.1427493
  57.3145697  25.7973868  53.4188627  58.1066989  25.4564693  53.0034926
  57.5542348  25.9068843  54.3390780  61.1121494  26.3859164  59.4972905
  60.8211360  27.2904794  59.3819572  61.7478478  26.4275691  60.2116975
  66.6546012  20.2211226  51.7299199  67.4409101  19.8030649  51.3789616
  66.9184716  21.1257318  51.8980847  72.0554439  20.1586459  52.6332178
  72.7879611  19.5885676  52.8670007  71.2993795  19.7708059  53.0738683
  69.5779859  13.8708033  57.0926786  69.2463184  14.7403444  56.8688001
  68.9825473  13.5544317  57.7720817  63.3136046  17.6103600  44.8256869
  63.4810448  18.4783837  45.1927340  63.1233215  17.7730882  43.9018158
  59.5223860  22.5234376  52.5259403  58.5974357  22.3910590  52.7337095
  59.7708274  23.3028595  53.0229346  69.4708523  18.5903119  54.1720136
  68.5625400  18.5218528  53.8778897  69.4196119  19.0675064  55.0001962
  56.8832671  22.1667649  53.3603192  57.0125053  22.4202128  54.2742604
  56.2030123  22.7595357  53.0407847  63.5449389  20.0092765  62.1155034
  62.7682723  20.5686685  62.1057898  64.1839952  20.4949548  62.6369904
  71.3370169  16.7919558  55.9498010  70.6944549  17.0852091  55.3037805
  70.8325098  16.6772478  56.7551207  68.9910333  20.5382731  46.6383869
  69.9028189  20.7710118  46.4631567  68.4819980  21.1219775  46.0758948
  61.7995761  22.8178218  61.6773001  62.5410445  23.3563262  61.4007824
  61.0932746  23.4444507  61.8344552  67.2751100  24.9607359  60.2745162
  67.6834457  24.5189769  59.5299794  66.5528362  24.3859986  60.5279355
  63.6282171  19.8979965  57.6478719  64.4743366  20.3219379  57.7913368
  63.5680808  19.2413590  58.3417282  66.7781616  17.5584334  59.3059893
  66.5342548  18.3126394  58.7694168  67.0541546  17.9369681  60.1407140
  68.7320079  24.1022946  57.9837158  68.9436974  24.7454706  57.3071539
  68.6849827  23.2685263  57.5159088  66.3346308  16.7140767  54.8873730
  65.4730787  17.0122020  55.1790468  66.3608742  16.9311166  53.9554763
  60.0431958  24.8054439  54.2327299  60.6133315  25.2341707  53.5944784
  60.6340070  24.5237024  54.9311485  62.0876763  21.3806110  48.1037101
  62.7900806  21.8327153  48.5711027  61.7557392  20.7389929  48.7316994
  60.5357125  19.9717866  62.4788311  59.9055785  20.6534147  62.7123707
  60.4293212  19.8600948  61.5341449  55.8302097  19.6389662  53.4054235
  55.0401151  19.8947191  52.9294345  56.3213344  20.4538000  53.5106275
  69.8465907  26.9794902  56.1559516  70.6683350  26.5775089  55.8742197
  69.8428309  26.8763136  57.1075631  57.7816842  20.0034242  50.3637711
  56.9848006  20.1152936  50.8821207  57.5542435  20.3420894  49.4978602
  54.1139800  19.8920153  55.8369225  54.3647838  20.7767163  56.1026801
  54.6499348  19.7124754  55.0644317  77.9371900  23.3233650  52.5044487
  77.1835608  22.7541048  52.3488491  78.0719441  23.2896315  53.4515122
  59.8137867  14.2738632  64.8413562  59.4204813  13.7204831  65.5161206
  60.6304008  14.5849211  65.2320079  62.7305828  15.6896511  62.4333818
  63.4715542  16.2903664  62.3538281  62.9623751  14.9474149  61.8751861
  57.8747166  20.8752879  60.7112048  57.7600681  19.9738136  61.0119147
  57.0191684  21.1216575  60.3596864  67.0520242  29.0973419  60.3380950
  67.0338717  29.9182300  59.8461219  67.9740162  28.9727494  60.5631091
  63.5093296  26.6117548  61.1804458  64.0421633  25.8505837  60.9503766
  62.9807377  26.3191200  61.9228613  66.6762991  11.7177614  56.7098100
  66.3327261  12.6079256  56.6337210  67.0441954  11.5279272  55.8467685
  64.2260385  16.5535926  50.2755773  63.3701981  16.1642777  50.0961412
  64.6387337  16.6327887  49.4155559  65.7559532  14.0882269  54.6747333
  65.2524327  14.0512405  53.8615138  66.0490139  14.9975012  54.7343990
  62.0002418  14.1720999  53.6813515  62.8655414  13.9763808  53.3219404
  62.0679926  13.9431351  54.6082872  71.6147548  24.4618580  47.1523708
  70.8376991  24.1229740  46.7078870  72.2939029  24.4671203  46.4778673
  66.4299577  19.5813317  47.0430316  66.1249713  19.8959467  47.8940459
  67.3830019  19.6594737  47.0857649  69.8538855  23.9352561  53.8090316
  69.1962529  24.6251823  53.8970445  70.6579254  24.3248993  54.1524303
  59.6064737  16.4023207  51.0529882  60.1808489  16.1798389  50.3203075
  60.1935719  16.4711902  51.8058483  68.6644314  22.2896934  51.8594258
  69.1776196  22.9226926  52.3615968  69.3145538  21.6898129  51.4937618
  59.9334324  18.4327668  45.0725767  59.0971636  18.7702355  45.3935042
  59.7939093  18.2976648  44.1352904  61.9087404  13.2764456  49.7804951
  61.2551817  12.9613473  49.1561566  61.8667878  12.6540196  50.5064774
  65.1425145  19.7646390  54.1052599  64.2247706  19.9861337  53.9474287
  65.5585288  19.8392700  53.2464306  65.9260192  21.1637805  49.2355279
  66.6732011  21.6759202  48.9262401  66.1951782  20.8421858  50.0959672
  68.3739030  18.1994921  51.2174068  67.6361786  17.6872308  51.5484311
  68.6265803  17.7595303  50.4057345  68.4750657  10.9771173  51.8115837
  68.7809534  10.1168537  51.5241753  69.2003262  11.5688794  51.6114831
  54.7675013  21.3801860  50.1997435  54.5699413  20.7871221  49.4748502
  54.2121677  21.0754070  50.9173374  62.7471737  21.2724967  52.3192029
  62.8020346  20.3198803  52.2434505  61.9362939  21.4284406  52.8033327
  60.6864097  19.8902026  50.0782407  59.8731962  20.1896197  50.4847600
  61.1823091  19.4957715  50.7956890  66.2838308  20.3543851  58.9097301
  66.6387696  20.5815324  59.7691767  66.9310439  20.6862228  58.2874557
  72.0136045  23.4762287  49.6146630  71.8753944  23.6663883  48.6867820
  71.6572264  24.2381669  50.0714681  60.1778171  17.4620382  55.6943642
  60.8177551  17.3209141  54.9966606  59.3455702  17.1754895  55.3182244
  72.0405425  25.5438814  54.6257902  72.4741931  25.4514103  55.4740956
  72.7537006  25.5196314  53.9877918  57.2621239  20.9065894  47.8838388
  56.3318827  20.8450349  48.1008350  57.3578711  20.3841847  47.0875029
  57.1806788  17.4320707  50.4716629  57.4413605  18.3466040  50.3625790
  58.0023960  16.9645149  50.6213242  58.6531713  18.8458464  57.6415454
  59.3254767  18.6375826  56.9928103  57.8261500  18.6480550  57.2020686
  72.9020974  25.5862514  57.1590787  73.0956864  26.4908325  57.4050062
  72.8021593  25.1269933  57.9929372  64.5557285  15.4720405  59.6581115
  63.9085200  16.1710355  59.5645591  65.3258301  15.9056549  60.0257363
  67.9636083  25.7369257  62.7331668  67.8121589  25.5079809  61.8161752
  67.9540763  26.6939858  62.7463013  59.0559210  22.1201067  58.4017891
  58.9179008  21.3881306  59.0029430  59.9664134  22.0309967  58.1202079
  61.6841511  21.8321026  57.8901571  62.3941130  21.1914218  57.8488189
  61.6410819  22.0833921  58.8127751  69.6728290  28.7688380  60.8108150
  69.6140836  28.0847600  60.1438733  70.0747808  29.5107370  60.3588776
  60.3970445  18.8186244  59.7097210  59.8607802  18.3676983  60.3618806
  59.8087153  18.9532153  58.9667674  59.8072704  18.2774896  42.2723674
  58.9302170  18.1563696  41.9085920  60.2830457  17.4860974  42.0202562
  69.6745697  26.7327964  59.0422129  68.7872476  26.3953885  59.1648528
  70.2444248  26.0010995  59.2790895  51.3274844  23.0652055  52.3665181
  52.0145884  22.7513785  51.7786196  51.1722973  23.9693420  52.0932432
  56.1309566  17.9542252  56.7950204  56.0467755  17.3467921  56.0600614
  55.3092273  18.4451270  56.7959701  66.3033280  16.4395815  52.1620400
  66.8001980  15.6865778  51.8421470  65.5320262  16.4760132  51.5963609
  74.1563038  22.1436181  53.8038691  74.1452914  23.0260896  53.4332624
  73.2880417  21.7907732  53.6093228  62.8868249  18.5813198  51.8892084
  62.5166036  18.0284239  52.5772990  63.3827341  17.9771332  51.3367084
  70.7735612  21.0384822  50.2708857  71.2396064  21.8712813  50.1969160
  71.2243113  20.5729803  50.9754116  68.7452275  13.4065409  54.3099758
  67.8315355  13.6369636  54.4781965  69.1745376  13.4903853  55.1613791
  68.5158733  21.5955301  56.8099652  67.8630184  21.8431208  56.1552105
  68.8939113  20.7819439  56.4762130  64.5646306  22.3375112  63.2965690
  63.8886943  22.2369241  63.9668065  65.3873940  22.1814326  63.7601687
  50.9042820  21.1452649  54.6382648  50.9426920  20.6116239  55.4319766
  50.3983113  20.6187854  54.0193625  58.2833583  15.9917189  58.1345190
  58.3474909  16.8532020  57.7222588  58.2200703  15.3791191  57.4017549
  57.7585855  18.0640322  61.7818224  58.3857894  17.6817399  62.3955749
  56.9013774  17.8454524  62.1473917  68.1579964  28.4703297  63.3871960
  68.7019868  29.0833255  62.8926915  67.5766808  29.0282875  63.9038973
  54.5351398  19.8716751  47.7136579  54.8304839  18.9627429  47.6603633
  53.6339434  19.8504490  47.3917582  58.0645645  17.9472747  53.6964128
  57.3432231  18.5608715  53.5571601  58.8538901  18.4830512  53.6180774
  60.8671958  15.2827174  59.9704780  61.3906360  15.5289470  60.7331089
  60.6484292  16.1147209  59.5507917  56.2639239  17.5530848  47.8375904
  55.9351946  16.6728227  47.6551010  56.6178610  17.4978517  48.7252294
  59.3781063  17.8403818  48.2051382  59.7177135  18.3689739  47.4829990
  59.8253183  18.1784224  48.9809949  62.0724503  16.2240869  57.6554450
  61.7321324  15.4248682  58.0575130  61.3663510  16.5242580  57.0831283
  62.7240975  13.3090181  56.1081773  63.5467044  12.8350660  55.9860664
  62.9679039  14.0880665  56.6080460  61.3649210  16.3378440  46.4044675
  62.0857572  16.7159693  45.9008392  60.7414514  17.0567317  46.5079653
  65.5080333  17.0423589  47.3403007  65.7243947  17.9248227  47.0391835
  65.0274400  16.6509802  46.6108649  60.2479554  20.0009302  53.9173752
  60.1024135  20.3149605  54.8098033  59.7704758  20.6194202  53.3644650
  62.1075937  16.9911850  53.9654641  62.0937506  16.0952943  53.6286939
  62.8248365  16.9982514  54.5992927  63.9602068  17.4249190  56.0107769
  63.7019845  18.3466261  56.0092099  63.4287108  17.0279625  56.7008233
  54.7225216  22.5414646  56.8561413  54.1778684  23.3174454  56.9881687
  55.6004566  22.8885451  56.6980534  61.5112833  15.8726230  49.2342212
  61.6328744  14.9442876  49.4333099  61.2214875  15.8864916  48.3220527
  64.3804023  13.5581141  52.3708931  64.4025720  13.6220474  51.4160911
  64.7972082  12.7185649  52.5649438  74.7587647  23.2936400  50.4088154
  75.2018794  22.5443725  50.0107277  73.8814158  23.2846537  50.0261886
  55.5091238  21.6684543  59.7491570  54.7672974  21.8167178  60.3356200
  55.1883982  21.9292808  58.8858319  63.4534901  31.2100521  59.5471960
  63.7622027  30.9649668  60.4194659  64.2510383  31.4147159  59.0590830
  60.9953912  17.3858228  63.4432144  61.0442068  18.2620350  63.0609914
  61.5376427  16.8435621  62.8703787  71.4808758  27.9299351  62.7233281
  70.6904302  27.9123490  62.1837781  71.2442113  28.4687645  63.4782318
  71.6006633  24.7791817  60.0366010  71.6504638  24.6141825  60.9781533
  71.4920556  23.9119076  59.6463891  68.8910395  20.7622745  61.3525316
  69.7920258  20.6229210  61.0609314  68.9658370  20.9277200  62.2923494
  63.2253201  18.1389600  60.1978503  62.3556510  18.4323166  59.9261091
  63.4612681  18.7230045  60.9185766  73.1024830  27.1988759  60.2808031
  72.8109638  27.5618739  61.1171492  72.4896961  26.4855767  60.1021363
  74.3020512  24.7641639  52.8010602  75.1367404  25.2031443  52.9648162
  74.4379641  24.2880292  51.9818847  71.3512018  22.3221373  58.7488089
  71.8266140  22.5149020  57.9406941  70.4277583  22.3780559  58.5031473
  65.9292235  14.3569217  57.7143923  66.4474178  15.0930244  57.3890412
  65.5747367  14.6633210  58.5490682  57.5091172  19.2173898  45.8305329
  56.8160417  19.2918253  45.1745365  57.2642924  18.4534242  46.3526846
  66.1804829  10.7769500  53.2344820  66.4606583  10.1092689  53.8605246
  66.9655436  10.9698595  52.7219484  70.0513687  19.1987134  56.9816395
  71.0031110  19.2985231  57.0028619  69.8817138  18.4065402  57.4914479
  68.0728067  16.2842717  57.1675796  67.4777999  16.5647729  56.4722284
  67.7877763  16.7736618  57.9392537  72.5301765  22.4193253  56.0958695
  72.4978085  21.4809254  56.2818378  73.1402389  22.4977290  55.3624519
  72.6796253  19.2104297  56.1416978  72.1635302  18.4262753  55.9546907
  73.5636202  18.8823013  56.3063497  70.3406980  12.9545312  52.1012790
  70.1431801  12.6460400  52.9856122  70.9506686  13.6806951  52.2310720
  78.3478315  23.4809260  55.2364731  79.0781703  23.2194548  55.7972435
  77.7385260  22.7437982  55.2766799  76.4293612  21.6217123  55.8339183
  75.7026775  21.4873088  55.2255674  76.0140899  21.9293951  56.6395901
  64.2523788  25.3407052  63.5986556  65.1726798  25.5185651  63.7926602
  64.2173371  24.3963098  63.4466255  53.4705953  20.5345646  52.5239830
  53.1508738  19.6810954  52.2314204  52.9239381  20.7494224  53.2797798
  57.2485861  23.2508087  56.2409337  57.4671871  24.1825195  56.2597371
  57.6611635  22.8916061  57.0264141  64.1690079  13.7576172  48.2285025
  63.3590807  13.4123257  48.6040271  64.8574496  13.4483716  48.8172637
  66.0980627  12.8354219  49.8509322  66.6511666  13.2549673  50.5099345
  66.3350713  11.9089967  49.8932278  62.1213726  18.8241293  65.6312086
  62.0210453  19.7735650  65.5624177  61.9035268  18.4959532  64.7588156
  61.3226798  16.0726218  42.2152763  62.1845962  16.3981116  42.4748580
  61.5077142  15.2857714  41.7025829  53.3394213  24.1548557  54.4932952
  52.6457685  23.7402510  53.9802906  54.0867204  24.1969094  53.8966371
  69.4759434  14.9454744  49.3587986  68.8958103  15.6039548  48.9766038
  69.2095367  14.1232089  48.9475403  67.9263000  14.3459802  51.5609306
  68.4262779  14.4576336  50.7523625  68.5698608  14.0420855  52.2010115
  61.9844996  22.2538432  64.4477147  61.5012078  23.0538792  64.6541036
  62.0705935  22.2646376  63.4944591  57.9118334  26.1442966  56.4845581
  58.8661587  26.1126909  56.4175513  57.7130857  25.6833590  57.2995807
  58.5017716  24.7144082  59.0516379  59.3210605  25.2088161  59.0751216
  58.7754524  23.7976050  59.0233946  68.2584312  17.1054835  48.4144334
  67.3710167  17.3904485  48.1964529  68.6738301  16.9448598  47.5671611
  71.6098848  17.1301356  52.1298673  72.3859238  17.6197808  52.4023290
  70.8846982  17.5559410  52.5870543  74.0471407  17.8428975  53.1872614
  74.6415898  17.6024711  52.4765922  74.1197990  17.1236105  53.8146150
  68.2325336  22.6209371  48.6294624  68.1760537  23.0777922  47.7902257
  68.7853678  21.8600055  48.4517467  72.0430142  18.4099102  49.4544744
  71.7867076  18.0095738  50.2852952  71.4183010  19.1242896  49.3294883
  76.3542480  21.1495176  51.9616035  75.7942038  21.2188365  52.7347597
  75.7485983  20.9736160  51.2415532  53.7552630  19.0482216  59.7508576
  54.4011494  18.5381170  60.2395801  53.5469781  19.7850898  60.3252001
  66.2806022  26.1163064  65.2500716  67.1497182  26.2903716  64.8887351
  65.8012774  26.9357481  65.1276446  62.2756241  13.3122261  45.5032472
  62.2634910  14.2564101  45.6600743  63.1679662  13.1292406  45.2091933
  66.0908360   9.9065037  49.7578409  65.3240756   9.3523524  49.9035091
  66.5019065   9.9786906  50.6192560  58.0950121  16.1949833  63.8483590
  58.9581583  15.8386638  64.0586915  57.5215532  15.8563728  64.5358994
  77.9398498  37.8251690  54.6545991  78.5776908  37.7058437  53.9509331
  77.8219341  38.7732534  54.7133943  75.2307987  38.9313969  60.5493721
  75.2196628  38.5366768  59.6774225  75.3928627  38.1980042  61.1427493
  77.4939766  35.5503143  51.7299199  78.2802856  35.1322567  51.3789616
  77.7578471  36.4549236  51.8980847  82.8948194  35.4878377  52.6332178
  83.6273366  34.9177593  52.8670007  82.1387549  35.0999977  53.0738683
  80.4173614  29.1999951  57.0926786  80.0856939  30.0695362  56.8688001
  79.8219227  28.8836235  57.7720817  76.9105133  41.4012497  56.4922699
  76.6105857  42.3037536  56.3838506  76.5656193  41.1344680  57.3443852
  80.3102277  33.9195037  54.1720136  79.4019155  33.8510445  53.8778897
  80.2589873  34.3966982  55.0001962  74.3843143  35.3384683  62.1155034
  73.6076477  35.8978603  62.1057898  75.0233706  35.8241466  62.6369904
  82.1763924  32.1211475  55.9498010  81.5338304  32.4144009  55.3037805
  81.6718852  32.0064396  56.7551207  72.6389515  38.1470136  61.6773001
  73.3804200  38.6855180  61.4007824  71.9326501  38.7736425  61.8344552
  78.1144855  40.2899276  60.2745162  78.5228211  39.8481687  59.5299794
  77.3922116  39.7151904  60.5279355  74.4675925  35.2271883  57.6478719
  75.3137120  35.6511297  57.7913368  74.4074563  34.5705507  58.3417282
  78.4373670  40.8500467  54.0297451  77.8082532  41.0146181  53.3273519
  78.0499332  41.2642077  54.8008415  82.3162902  41.7854905  51.3841815
  81.6313940  42.1653806  50.8338848  82.4006751  42.3950232  52.1173762
  77.6175370  32.8876251  59.3059893  77.3736302  33.6418312  58.7694168
  77.8935301  33.2661599  60.1407140  79.5713833  39.4314864  57.9837158
  79.7830728  40.0746624  57.3071539  79.5243581  38.5977180  57.5159088
  77.1740062  32.0432685  54.8873730  76.3124541  32.3413938  55.1790468
  77.2002497  32.2603083  53.9554763  71.3750879  35.3009784  62.4788311
  70.7449540  35.9826065  62.7123707  71.2686967  35.1892866  61.5341449
  80.6859661  42.3086819  56.1559516  81.5077105  41.9067007  55.8742197
  80.6822064  42.2055053  57.1075631  74.4516265  41.8570863  58.3120226
  74.5160697  42.3191270  59.1478398  73.7427188  41.2268228  58.4402536
  88.7765654  38.6525568  52.5044487  88.0229363  38.0832966  52.3488491
  88.9113195  38.6188232  53.4515122  73.5699583  31.0188429  62.4333818
  74.3109296  31.6195582  62.3538281  73.8017506  30.2766067  61.8751861
  75.7932759  44.1462537  62.3099548  75.3496613  43.3598915  61.9920453
  76.4549972  44.3341687  61.6443439  77.8913997  44.4265337  60.3380950
  77.8732472  45.2474218  59.8461219  78.8133917  44.3019412  60.5631091
  74.3487051  41.9409466  61.1804458  74.8815388  41.1797754  60.9503766
  73.8201132  41.6483118  61.9228613  77.5156746  27.0469532  56.7098100
  77.1721015  27.9371174  56.6337210  77.8835708  26.8571190  55.8467685
  75.0654140  31.8827844  50.2755773  74.2095736  31.4934694  50.0961412
  75.4781091  31.9619805  49.4155559  76.5953286  29.4174187  54.6747333
  76.0918082  29.3804322  53.8615138  76.8883893  30.3266930  54.7343990
  72.8396172  29.5012917  53.6813515  73.7049169  29.3055726  53.3219404
  72.9073681  29.2723269  54.6082872  80.6932610  39.2644479  53.8090316
  80.0356284  39.9543740  53.8970445  81.4973009  39.6540911  54.1524303
  79.5038068  37.6188852  51.8594258  80.0169950  38.2518843  52.3615968
  80.1539292  37.0190047  51.4937618  72.7481159  28.6056374  49.7804951
  72.0945571  28.2905391  49.1561566  72.7061633  27.9832114  50.5064774
  75.9818899  35.0938307  54.1052599  75.0641461  35.3153254  53.9474287
  76.3979043  35.1684618  53.2464306  76.7653947  36.4929723  49.2355279
  77.5125766  37.0051120  48.9262401  77.0345536  36.1713776  50.0959672
  79.2132784  33.5286839  51.2174068  78.4755541  33.0164225  51.5484311
  79.4659558  33.0887221  50.4057345  79.3144411  26.3063091  51.8115837
  79.6203288  25.4460455  51.5241753  80.0397016  26.8980711  51.6114831
  77.1232063  35.6835768  58.9097301  77.4781450  35.9107242  59.7691767
  77.7704194  36.0154145  58.2874557  82.8529800  38.8054204  49.6146630
  82.7147698  38.9955800  48.6867820  82.4966019  39.5673587  50.0714681
  82.8799179  40.8730731  54.6257902  83.3135686  40.7806020  55.4740956
  83.5930760  40.8488232  53.9877918  76.6127074  44.4732825  56.1591002
  76.6664096  45.0423762  56.9268718  75.7441856  44.6434710  55.7945040
  83.7414729  40.9154432  57.1590787  83.9350619  41.8200242  57.4050062
  83.6415347  40.4561851  57.9929372  75.3951040  30.8012323  59.6581115
  74.7478955  31.5002272  59.5645591  76.1652055  31.2348466  60.0257363
  78.8029838  41.0661175  62.7331668  78.6515344  40.8371726  61.8161752
  78.7934517  42.0231776  62.7463013  75.5715174  38.6393087  57.7177934
  76.5007234  38.7904247  57.5446902  75.1506204  38.7277108  56.8626581
  74.3703506  42.6643752  55.4876472  74.2314591  42.2962536  56.3602410
  73.5818102  43.1791391  55.3160430  72.5235266  37.1612944  57.8901571
  73.2334884  36.5206136  57.8488189  72.4804574  37.4125839  58.8127751
  80.5122044  44.0980297  60.8108150  80.4534590  43.4139517  60.1438733
  80.9141563  44.8399287  60.3588776  71.2364199  34.1478162  59.7097210
  70.7001557  33.6968900  60.3618806  70.6480908  34.2824071  58.9667674
  80.5139451  42.0619881  59.0422129  79.6266230  41.7245803  59.1648528
  81.0838003  41.3302912  59.2790895  74.0440605  46.7221334  56.0083373
  73.9710776  47.5276305  56.5202677  73.6017998  46.9213299  55.1831394
  77.1427035  31.7687733  52.1620400  77.6395734  31.0157695  51.8421470
  76.3714016  31.8052050  51.5963609  84.9956792  37.4728099  53.8038691
  84.9846668  38.3552814  53.4332624  84.1274171  37.1199649  53.6093228
  81.6129367  36.3676740  50.2708857  82.0789819  37.2004731  50.1969160
  82.0636867  35.9021721  50.9754116  79.5846029  28.7357327  54.3099758
  78.6709109  28.9661553  54.4781965  80.0139131  28.8195771  55.1613791
  79.3552488  36.9247219  56.8099652  78.7023938  37.1723126  56.1552105
  79.7332868  36.1111357  56.4762130  75.4040061  37.6667030  63.2965690
  74.7280698  37.5661159  63.9668065  76.2267695  37.5106243  63.7601687
  74.1462844  48.9733957  57.5323306  74.6981152  49.1365579  58.2972391
  74.4869037  49.5638395  56.8603330  68.5979610  33.3932239  61.7818224
  69.2251648  33.0109317  62.3955749  67.7407528  33.1746441  62.1473917
  78.9973718  43.7995215  63.3871960  79.5413622  44.4125173  62.8926915
  78.4160563  44.3574793  63.9038973  77.2831231  46.9215933  54.5186988
  77.1582371  46.1205672  54.0097933  77.9410322  47.4162126  54.0300958
  79.3466139  44.7224953  56.1466538  78.3996475  44.6030304  56.0744864
  79.6948913  43.8347451  56.2292799  71.7065713  30.6119092  59.9704780
  72.2300115  30.8581388  60.7331089  71.4878046  31.4439126  59.5507917
  76.3512573  44.5177669  52.3470890  76.2037535  43.5894376  52.5278460
  77.1766066  44.5397760  51.8627965  79.9546695  45.3406228  53.4335763
  80.8793242  45.1349089  53.2960214  79.7861998  45.0922629  54.3425104
  72.9118258  31.5532787  57.6554450  72.5715078  30.7540600  58.0575130
  72.2057264  31.8534497  57.0831283  73.5634730  28.6382099  56.1081773
  74.3860799  28.1642577  55.9860664  73.8072793  29.4172583  56.6080460
  74.7995822  32.7541108  56.0107769  74.5413600  33.6758179  56.0092099
  74.2680862  32.3571542  56.7008233  75.2197778  28.8873058  52.3708931
  75.2419474  28.9512392  51.4160911  75.6365837  28.0477567  52.5649438
  85.5981402  38.6228318  50.4088154  86.0412548  37.8735643  50.0107277
  84.7207912  38.6138454  50.0261886  74.2928655  46.5392439  59.5471960
  74.6015782  46.2941585  60.4194659  75.0904137  46.7439077  59.0590830
  71.8347667  32.7150145  63.4432144  71.8835822  33.5912268  63.0609914
  72.3770181  32.1727538  62.8703787  82.3202512  43.2591269  62.7233281
  81.5298056  43.2415407  62.1837781  82.0835867  43.7979562  63.4782318
  82.4400388  40.1083735  60.0366010  82.4898392  39.9433742  60.9781533
  82.3314311  39.2410994  59.6463891  79.7304150  36.0914663  61.3525316
  80.6314013  35.9521128  61.0609314  79.8052124  36.2569118  62.2923494
  74.0646955  33.4681518  60.1978503  73.1950265  33.7615084  59.9261091
  74.3006436  34.0521963  60.9185766  83.9418584  42.5280676  60.2808031
  83.6503393  42.8910657  61.1171492  83.3290716  41.8147685  60.1021363
  85.1414267  40.0933556  52.8010602  85.9761158  40.5323360  52.9648162
  85.2773395  39.6172209  51.9818847  82.1905773  37.6513291  58.7488089
  82.6659894  37.8440937  57.9406941  81.2671338  37.7072477  58.5031473
  76.7685989  29.6861135  57.7143923  77.2867933  30.4222162  57.3890412
  76.4141122  29.9925128  58.5490682  77.0198583  26.1061417  53.2344820
  77.3000337  25.4384606  53.8605246  77.8049190  26.2990513  52.7219484
  80.8907442  34.5279051  56.9816395  81.8424864  34.6277149  57.0028619
  80.7210892  33.7357320  57.4914479  78.9121821  31.6134634  57.1675796
  78.3171753  31.8939647  56.4722284  78.6271518  32.1028535  57.9392537
  83.3695519  37.7485171  56.0958695  83.3371839  36.8101172  56.2818378
  83.9796143  37.8269208  55.3624519  83.5190008  34.5396214  56.1416978
  83.0029056  33.7554671  55.9546907  84.4029956  34.2114931  56.3063497
  81.1800735  28.2837230  52.1012790  80.9825556  27.9752318  52.9856122
  81.7900440  29.0098869  52.2310720  89.1872069  38.8101178  55.2364731
  89.9175458  38.5486466  55.7972435  88.5779015  38.0729900  55.2766799
  87.2687366  36.9509040  55.8339183  86.5420530  36.8165005  55.2255674
  86.8534653  37.2585869  56.6395901  75.0917543  40.6698970  63.5986556
  76.0120552  40.8477569  63.7926602  75.0567126  39.7255015  63.4466255
  75.0083833  29.0868090  48.2285025  74.1984561  28.7415175  48.6040271
  75.6968250  28.7775634  48.8172637  76.9374381  28.1646137  49.8509322
  77.4905420  28.5841590  50.5099345  77.1744468  27.2381885  49.8932278
  72.9607481  34.1533210  65.6312086  72.8604208  35.1027567  65.5624177
  72.7429023  33.8251449  64.7588156  80.3153188  30.2746662  49.3587986
  79.7351858  30.9331466  48.9766038  80.0489121  29.4524007  48.9475403
  78.7656755  29.6751720  51.5609306  79.2656533  29.7868254  50.7523625
  79.4092363  29.3712772  52.2010115  72.8238751  37.5830349  64.4477147
  72.3405832  38.3830709  64.6541036  72.9099690  37.5938294  63.4944591
  79.0978067  32.4346752  48.4144334  78.2103922  32.7196403  48.1964529
  79.5132056  32.2740516  47.5671611  82.4492603  32.4593273  52.1298673
  83.2252993  32.9489726  52.4023290  81.7240737  32.8851327  52.5870543
  84.8865161  33.1720893  53.1872614  85.4809652  32.9316628  52.4765922
  84.9591745  32.4528023  53.8146150  82.8823896  33.7391020  49.4544744
  82.6260830  33.3387656  50.2852952  82.2576764  34.4534814  49.3294883
  87.1936234  36.4787093  51.9616035  86.6335792  36.5480283  52.7347597
  86.5879737  36.3028078  51.2415532  77.1199777  41.4454981  65.2500716
  77.9890936  41.6195634  64.8887351  76.6406528  42.2649398  65.1276446
  76.9302114  25.2356955  49.7578409  76.1634510  24.6815442  49.9035091
  77.3412819  25.3078824  50.6192560  88.7792252  53.1543607  54.6545991
  89.4170662  53.0350355  53.9509331  88.6613095  54.1024451  54.7133943
  85.5881959  53.1071035  54.5907516  85.2500470  52.9912100  53.7028051
  86.4571727  52.7062200  54.5708522  81.4468774  54.9606512  50.5804407
  80.8833640  54.8696449  49.8120694  81.3321169  54.1406416  51.0606899
  86.0701742  54.2605887  60.5493721  86.0590383  53.8658685  59.6774225
  86.2322381  53.5271960  61.1427493  78.9933206  56.4557703  53.4188627
  79.7854498  56.1148528  53.0034926  79.2329857  56.5652678  54.3390780
  87.0268333  58.6277480  45.8918872  86.3756313  59.2131560  45.5052885
  87.8212696  59.1583674  45.9513909  80.9523960  55.7166617  46.2906006
  81.7254836  55.1695604  46.1518882  81.3049359  56.5810866  46.5020467
  82.7909003  57.0442999  59.4972905  82.4998869  57.9488630  59.3819572
  83.4265987  57.0859527  60.2116975  83.7165210  54.4219847  56.0874265
  84.3128782  54.1975870  55.3731228  83.7740181  53.6804593  56.6899713
  83.2890238  51.8759283  43.9224456  83.5415759  51.3540804  43.1607919
  82.3514797  51.7125428  44.0251139  88.3333521  50.8795061  51.7299199
  89.1196610  50.4614484  51.3789616  88.5972225  51.7841153  51.8980847
  88.5043598  56.3167911  46.4287856  87.8689431  56.3902538  47.1408761
  88.1741005  56.9061510  45.7506935  93.7341948  50.8170294  52.6332178
  94.4667120  50.2469511  52.8670007  92.9781304  50.4291895  53.0738683
  83.0086527  53.7787389  46.1248831  82.8922785  53.1032292  46.7929915
  83.1188787  53.2919763  45.3080984  85.3518068  53.2397536  49.8295520
  84.9876275  52.7128157  50.5408442  86.2085184  52.8496005  49.6562005
  91.2567368  44.5291868  57.0926786  90.9250693  45.3987279  56.8688001
  90.6612982  44.2128152  57.7720817  84.9923555  48.2687436  44.8256869
  85.1597957  49.1367672  45.1927340  84.8020724  48.4314717  43.9018158
  87.7498888  56.7304414  56.4922699  87.4499611  57.6329453  56.3838506
  87.4049947  56.4636598  57.3443852  81.2011369  53.1818211  52.5259403
  80.2761866  53.0494425  52.7337095  81.4495783  53.9612431  53.0229346
  91.1496032  49.2486955  54.1720136  90.2412909  49.1802363  53.8778897
  91.0983628  49.7258900  55.0001962  84.9712776  50.7245093  45.8103535
  84.8512401  51.1702144  46.6489016  84.2765364  51.0730411  45.2517074
  78.5620180  52.8251485  53.3603192  78.6912562  53.0785964  54.2742604
  77.8817632  53.4179193  53.0407847  82.7319668  63.4948735  49.4593667
  82.6543697  64.4456560  49.5382147  82.1281311  63.1494607  50.1168593
  85.2236898  50.6676600  62.1155034  84.4470232  51.2270520  62.1057898
  85.8627461  51.1533383  62.6369904  93.0157678  47.4503393  55.9498010
  92.3732058  47.7435926  55.3037805  92.5112607  47.3356313  56.7551207
  90.6697842  51.1966566  46.6383869  91.5815698  51.4293953  46.4631567
  90.1607489  51.7803610  46.0758948  83.4783270  53.4762054  61.6773001
  84.2197954  54.0147098  61.4007824  82.7720255  54.1028342  61.8344552
  88.9538609  55.6191194  60.2745162  89.3621966  55.1773605  59.5299794
  88.2315871  55.0443822  60.5279355  85.3069680  50.5563801  57.6478719
  86.1530875  50.9803214  57.7913368  85.2468317  49.8997425  58.3417282
  89.2767424  56.1792385  54.0297451  88.6476287  56.3438099  53.3273519
  88.8893086  56.5933994  54.8008415  93.1556656  57.1146823  51.3841815
  92.4707694  57.4945724  50.8338848  93.2400505  57.7242149  52.1173762
  88.4569125  48.2168169  59.3059893  88.2130057  48.9710230  58.7694168
  88.7329055  48.5953517  60.1407140  90.4107588  54.7606782  57.9837158
  90.6224483  55.4038541  57.3071539  90.3637336  53.9269098  57.5159088
  88.0133817  47.3724602  54.8873730  87.1518296  47.6705856  55.1790468
  88.0396251  47.5895001  53.9554763  84.8295386  55.9166793  51.2947536
  85.2933732  56.1954496  50.5052158  84.5652184  55.0150237  51.1120627
  81.7219467  55.4638274  54.2327299  82.2920824  55.8925543  53.5944784
  82.3127579  55.1820859  54.9311485  83.7664272  52.0389945  48.1037101
  84.4688315  52.4910989  48.5711027  83.4344901  51.3973764  48.7316994
  82.2144634  50.6301702  62.4788311  81.5843294  51.3117983  62.7123707
  82.1080721  50.5184783  61.5341449  77.5089606  50.2973498  53.4054235
  76.7188660  50.5531026  52.9294345  78.0000853  51.1121836  53.5106275
  91.5253416  57.6378737  56.1559516  92.3470859  57.2358924  55.8742197
  91.5215818  57.5346971  57.1075631  79.4604351  50.6618077  50.3637711
  78.6635515  50.7736771  50.8821207  79.2329944  51.0004729  49.4978602
  85.2910019  57.1862780  58.3120226  85.3554452  57.6483187  59.1478398
  84.5820943  56.5560145  58.4402536  99.6159409  53.9817485  52.5044487
  98.8623117  53.4124884  52.3488491  99.7506950  53.9480150  53.4515122
  85.0058037  58.8530888  48.1799206  84.8703711  59.6982423  48.6084054
  85.5467849  59.0550165  47.4165140  81.4925376  44.9322468  64.8413562
  81.0992322  44.3788666  65.5161206  82.3091517  45.2433046  65.2320079
  78.4587434  56.3706326  48.7527131  78.9711955  57.1649576  48.9032696
  79.1110147  55.6732616  48.6860733  80.2682319  59.4872082  50.8349885
  80.4448947  60.4090047  50.6470868  81.0639152  59.1730501  51.2644264
  84.4093337  46.3480347  62.4333818  85.1503051  46.9487500  62.3538281
  84.6411260  45.6057984  61.8751861  79.5534675  51.5336714  60.7112048
  79.4388190  50.6321971  61.0119147  78.6979193  51.7800411  60.3596864
  86.6326513  59.4754454  62.3099548  86.1890367  58.6890833  61.9920453
  87.2943727  59.6633605  61.6443439  81.3913634  61.0050256  56.8360227
  81.9421059  60.8767319  56.0637221  80.5525110  61.3045145  56.4855120
  88.7307751  59.7557254  60.3380950  88.7126226  60.5766135  59.8461219
  89.6527671  59.6311329  60.5631091  85.1880805  57.2701384  61.1804458
  85.7209142  56.5089672  60.9503766  84.6594886  56.9775035  61.9228613
  88.3550500  42.3761450  56.7098100  88.0114770  43.2663091  56.6337210
  88.7229463  42.1863107  55.8467685  76.4236351  54.6994980  49.5286702
  77.2611573  55.1091988  49.3120410  76.6014619  53.7594422  49.4986896
  88.3200783  52.3670061  45.2170535  87.8047406  53.1374665  45.4558922
  88.0478091  51.6935197  45.8403596  85.9047894  47.2119762  50.2755773
  85.0489490  46.8226612  50.0961412  86.3174846  47.2911722  49.4155559
  87.4347041  44.7466105  54.6747333  86.9311836  44.7096240  53.8615138
  87.7277648  45.6558848  54.7343990  83.6789927  44.8304835  53.6813515
  84.5442923  44.6347643  53.3219404  83.7467435  44.6015186  54.6082872
  93.2935057  55.1202415  47.1523708  92.5164500  54.7813575  46.7078870
  93.9726538  55.1255039  46.4778673  88.1087086  50.2397153  47.0430316
  87.8037222  50.5543302  47.8940459  89.0617528  50.3178573  47.0857649
  86.5533518  56.3987376  48.6923270  86.0254880  55.6640136  48.3796508
  86.0521021  57.1762052  48.4463238  91.5326364  54.5936397  53.8090316
  90.8750038  55.2835658  53.8970445  92.3366763  54.9832829  54.1524303
  81.2852246  47.0607042  51.0529882  81.8595997  46.8382224  50.3203075
  81.8723228  47.1295737  51.8058483  90.3431823  52.9480769  51.8594258
  90.8563705  53.5810761  52.3615968  90.9933047  52.3481965  51.4937618
  81.6121833  49.0911503  45.0725767  80.7759145  49.4286190  45.3935042
  81.4726602  48.9560483  44.1352904  84.6986118  54.2167586  41.6958243
  83.7913180  53.9856840  41.8949392  85.1957150  53.4205206  41.8832225
  87.6054197  62.9265094  44.6154929  86.9315896  63.2296790  45.2239887
  87.9920019  63.7294174  44.2660386  86.8212654  50.4230225  54.1052599
  85.9035215  50.6445172  53.9474287  87.2372797  50.4976535  53.2464306
  87.6047701  51.8221641  49.2355279  88.3519520  52.3343038  48.9262401
  87.8739291  51.5005693  50.0959672  85.8774352  54.3180181  46.2182233
  84.9685571  54.0339214  46.3154703  85.9069435  54.7379260  45.3585540
  91.1093619  57.9286771  49.9873401  90.6555946  57.0877681  50.0438591
  90.4787586  58.5648169  50.3248181  90.0526539  48.8578757  51.2174068
  89.3149295  48.3456143  51.5484311  90.3053312  48.4179138  50.4057345
  89.5526558  59.7663267  50.9223219  89.8449533  60.3268325  50.2035585
  90.0625179  60.0591828  51.6776378  90.1538166  41.6355009  51.8115837
  90.4597043  40.7752372  51.5241753  90.8790771  42.2272629  51.6114831
  76.4462522  52.0385695  50.1997435  76.2486922  51.4455056  49.4748502
  75.8909186  51.7337906  50.9173374  84.4259246  51.9308802  52.3192029
  84.4807855  50.9782638  52.2434505  83.6150448  52.0868241  52.8033327
  85.5750439  55.8588925  43.5570312  85.1369869  55.1424784  43.0975949
  86.3160880  56.0865040  42.9955403  82.3651606  50.5485862  50.0782407
  81.5519471  50.8480032  50.4847600  82.8610600  50.1541550  50.7956890
  84.5160183  60.5443619  52.0116672  84.4736362  60.7704465  51.0825204
  85.4322882  60.3106993  52.1602473  87.9625817  51.0127686  58.9097301
  88.3175205  51.2399159  59.7691767  88.6097948  51.3446063  58.2874557
  93.6923554  54.1346122  49.6146630  93.5541453  54.3247718  48.6867820
  93.3359773  54.8965505  50.0714681  81.8565680  48.1204217  55.6943642
  82.4965060  47.9792976  54.9966606  81.0243211  47.8338731  55.3182244
  93.7192934  56.2022649  54.6257902  94.1529440  56.1097938  55.4740956
  94.4324514  56.1780149  53.9877918  82.6325984  57.4206648  51.8078635
  83.4266583  56.9256968  51.6061210  81.9217677  56.8924511  51.4446340
  87.4520829  59.8024743  56.1591002  87.5057851  60.3715679  56.9268718
  86.5835610  59.9726628  55.7945040  78.9408748  51.5649729  47.8838388
  78.0106336  51.5034185  48.1008350  79.0366220  51.0425682  47.0875029
  78.8594297  48.0904542  50.4716629  79.1201114  49.0049875  50.3625790
  79.6811469  47.6228985  50.6213242  80.3319222  49.5042299  57.6415454
  81.0042275  49.2959661  56.9928103  79.5049009  49.3064385  57.2020686
  94.5808483  56.2446350  57.1590787  94.7744373  57.1492160  57.4050062
  94.4809102  55.7853769  57.9929372  86.2344794  46.1304240  59.6581115
  85.5872709  46.8294190  59.5645591  87.0045809  46.5640384  60.0257363
  89.6423592  56.3953092  62.7331668  89.4909098  56.1663644  61.8161752
  89.6328272  57.3523694  62.7463013  86.4108928  53.9685005  57.7177934
  87.3400988  54.1196165  57.5446902  85.9899958  54.0569026  56.8626581
  85.2097260  57.9935670  55.4876472  85.0708346  57.6254454  56.3602410
  84.4211856  58.5083309  55.3160430  85.8045412  63.0944766  46.8302008
  85.9797168  62.6232809  47.6447631  85.1178200  63.7210532  47.0583269
  86.7602475  57.3717272  52.8765310  86.4252308  57.3318042  53.7722960
  86.2606421  56.7061988  52.4035720  80.7346719  52.7784902  58.4017891
  80.5966517  52.0465141  59.0029430  81.6451643  52.6893802  58.1202079
  89.6961667  54.7173307  43.1502369  89.0790838  53.9920135  43.0535422
  89.2278155  55.4782667  42.8069444  83.3629020  52.4904862  57.8901571
  84.0728639  51.8498054  57.8488189  83.3198328  52.7417756  58.8127751
  91.3515799  59.4272215  60.8108150  91.2928345  58.7431435  60.1438733
  91.7535317  60.1691205  60.3588776  82.0757954  49.4770079  59.7097210
  81.5395311  49.0260818  60.3618806  81.4874662  49.6115988  58.9667674
  80.3706497  66.2434129  53.6041869  80.6103096  66.8752653  54.2820887
  79.5275694  65.8922169  53.8907228  91.3533206  57.3911799  59.0422129
  90.4659985  57.0537721  59.1648528  91.9231757  56.6594830  59.2790895
  77.8097075  48.6126087  56.7950204  77.7255264  48.0051757  56.0600614
  76.9879782  49.1035106  56.7959701  84.8834359  62.0513251  56.0083373
  84.8104531  62.8568223  56.5202677  84.4411752  62.2505217  55.1831394
  84.6724139  61.2885021  49.5186194  83.8891661  61.8306701  49.6124419
  85.3716884  61.8059001  49.9180435  87.9820789  47.0979651  52.1620400
  88.4789489  46.3449613  51.8421470  87.2107771  47.1343967  51.5963609
  95.8350546  52.8020016  53.8038691  95.8240423  53.6844732  53.4332624
  94.9667926  52.4491567  53.6093228  87.3433043  61.9500085  58.1641531
  88.0561015  62.5847550  58.0917433  86.8523072  62.0463951  57.3481533
  89.0650570  55.8551338  49.7358823  88.1306849  55.9752800  49.5663527
  89.2427238  54.9523805  49.4718833  84.5655758  49.2397034  51.8892084
  84.1953545  48.6868074  52.5772990  85.0614850  48.6355167  51.3367084
  92.4523121  51.6968657  50.2708857  92.9183573  52.5296649  50.1969160
  92.9030622  51.2313639  50.9754116  82.3944956  59.6994529  58.9847102
  83.0954416  60.3331012  59.1376496  81.9240071  60.0409260  58.2242741
  90.5199352  58.0412479  47.2695009  90.7959196  57.9269073  48.1788883
  89.6503851  57.6429963  47.2307182  90.4239784  44.0649244  54.3099758
  89.5102864  44.2953471  54.4781965  90.8532885  44.1487688  55.1613791
  90.1946242  52.2539136  56.8099652  89.5417693  52.5015044  56.1552105
  90.5726622  51.4403274  56.4762130  87.1553416  62.2898829  50.9127823
  87.3375811  61.4720485  51.3755575  87.9786402  62.5066522  50.4752713
  87.4895582  61.2167014  48.1742871  88.0183348  60.7059469  47.5613033
  87.7523801  60.9009545  49.0388404  86.2433815  52.9958947  63.2965690
  85.5674452  52.8953077  63.9668065  87.0661449  52.8398161  63.7601687
  77.9912674  59.2330884  55.9178205  78.5766111  58.4874572  56.0506109
  77.7937513  59.5434840  56.8014869  80.8451330  62.2682131  50.9340647
  80.1761705  62.7528259  50.4504687  80.7064199  62.5151352  51.8484026
  84.9856598  64.3025875  57.5323306  85.5374906  64.4657496  58.2972391
  85.3262792  64.8930313  56.8603330  79.9621091  46.6501024  58.1345190
  80.0262418  47.5115855  57.7222588  79.8988212  46.0375026  57.4017549
  79.4373364  48.7224157  61.7818224  80.0645403  48.3401234  62.3955749
  78.5801283  48.5038359  62.1473917  89.8367473  59.1287132  63.3871960
  90.3807377  59.7417090  62.8926915  89.2554317  59.6866711  63.9038973
  76.2138907  50.5300586  47.7136579  76.5092348  49.6211265  47.6603633
  75.3126943  50.5088326  47.3917582  88.1224986  62.2507850  54.5186988
  87.9976125  61.4497590  54.0097933  88.7804077  62.7454044  54.0300958
  79.7433154  48.6056583  53.6964128  79.0219740  49.2192550  53.5571601
  80.5326410  49.1414348  53.6180774  90.1859894  60.0516870  56.1466538
  89.2390229  59.9322221  56.0744864  90.5342667  59.1639368  56.2292799
  82.5459467  45.9411009  59.9704780  83.0693869  46.1873306  60.7331089
  82.3271801  46.7731044  59.5507917  87.1906327  59.8469587  52.3470890
  87.0431290  58.9186294  52.5278460  88.0159821  59.8689677  51.8627965
  81.0568572  48.4987654  48.2051382  81.3964644  49.0273575  47.4829990
  81.5040692  48.8368060  48.9809949  90.7940449  60.6698145  53.4335763
  91.7186997  60.4641007  53.2960214  90.6255752  60.4214546  54.3425104
  83.7512012  46.8824704  57.6554450  83.4108833  46.0832517  58.0575130
  83.0451019  47.1826415  57.0831283  84.4028484  43.9674017  56.1081773
  85.2254553  43.4934495  55.9860664  84.6466548  44.7464501  56.6080460
  87.1867842  47.7007424  47.3403007  87.4031456  48.5832062  47.0391835
  86.7061909  47.3093638  46.6108649  81.9267063  50.6593137  53.9173752
  81.7811644  50.9733440  54.8098033  81.4492267  51.2778038  53.3644650
  83.7863446  47.6495685  53.9654641  83.7725015  46.7536779  53.6286939
  84.5035874  47.6566349  54.5992927  85.6389577  48.0833026  56.0107769
  85.3807354  49.0050096  56.0092099  85.1074617  47.6863460  56.7008233
  90.5835765  61.1883813  48.7897854  90.7572643  60.6230235  48.0371707
  91.0764657  61.9884708  48.6077344  76.4012725  53.1998482  56.8561413
  75.8566193  53.9758290  56.9881687  77.2792075  53.5469286  56.6980534
  86.0591532  44.2164976  52.3708931  86.0813229  44.2804309  51.4160911
  86.4759591  43.3769485  52.5649438  96.4375156  53.9520236  50.4088154
  96.8806302  53.2027561  50.0107277  95.5601667  53.9430372  50.0261886
  91.5710938  60.5050577  45.8894752  92.2661842  61.1257270  46.1082067
  91.9134088  59.6545928  46.1647130  77.1878747  52.3268378  59.7491570
  76.4460483  52.4751013  60.3356200  76.8671491  52.5876644  58.8858319
  93.4702361  57.9550283  47.4182083  93.9953685  58.2937555  46.6931403
  93.3824713  57.0197298  47.2345218  85.1322410  61.8684356  59.5471960
  85.4409536  61.6233503  60.4194659  85.9297892  62.0730995  59.0590830
  85.1543022  64.0222266  51.7777336  84.7148012  63.5298645  52.4710193
  85.9051139  63.4795234  51.5369412  77.6335361  60.2133807  51.7801964
  78.4593381  59.9137579  51.4000608  77.2829413  59.4441429  52.2291753
  82.6016894  59.5660275  53.8499638  81.9796903  58.9030980  53.5501866
  83.2721761  59.5921407  53.1673286  75.8343966  58.1320133  52.7390898
  74.9975874  57.7042308  52.5574899  75.8067611  58.3252577  53.6761689
  82.6741421  48.0442063  63.4432144  82.7229577  48.9204186  63.0609914
  83.2163935  47.5019456  62.8703787  93.1596267  58.5883186  62.7233281
  92.3691811  58.5707325  62.1837781  92.9229622  59.1271480  63.4782318
  93.2794142  55.4375653  60.0366010  93.3292147  55.2725660  60.9781533
  93.1708065  54.5702912  59.6463891  82.1630401  58.1164198  47.3258099
  82.3118521  58.7999663  46.6724771  82.9696844  58.0969288  47.8407554
  90.5697904  51.4206581  61.3525316  91.4707767  51.2813046  61.0609314
  90.6445879  51.5861036  62.2923494  84.9040710  48.7973435  60.1978503
  84.0344019  49.0907001  59.9261091  85.1400190  49.3813880  60.9185766
  94.7812339  57.8572594  60.2808031  94.4897147  58.2202575  61.1171492
  94.1684470  57.1439602  60.1021363  95.9808021  55.4225474  52.8010602
  96.8154913  55.8615278  52.9648162  96.1167150  54.9464127  51.9818847
  93.0299527  52.9805209  58.7488089  93.5053649  53.1732855  57.9406941
  92.1065092  53.0364395  58.5031473  79.9183034  54.1429376  48.3319168
  79.6729076  53.2391706  48.5299378  80.0878948  54.1446526  47.3898646
  87.6079744  45.0153052  57.7143923  88.1261687  45.7514079  57.3890412
  87.2534876  45.3217046  58.5490682  87.8592338  41.4353335  53.2344820
  88.1394091  40.7676524  53.8605246  88.6442945  41.6282431  52.7219484
  85.6625806  60.6112329  44.7969846  85.0899773  61.2302516  44.3440318
  86.2358600  61.1611690  45.3309768  91.7301196  49.8570969  56.9816395
  92.6818619  49.9569067  57.0028619  91.5604646  49.0649237  57.4914479
  89.7515576  46.9426552  57.1675796  89.1565508  47.2231565  56.4722284
  89.4665272  47.4320453  57.9392537  88.8823066  60.8949479  45.9278428
  89.8153739  60.8295041  46.1311304  88.7946279  61.7305746  45.4692961
  91.5111083  60.2115349  42.8882376  91.4324714  59.8775213  43.7818134
  92.3320749  60.7037117  42.8873848  94.2089274  53.0777089  56.0958695
  94.1765594  52.1393089  56.2818378  94.8189898  53.1561125  55.3624519
  86.0472605  51.9473142  42.1385899  86.9931709  51.8179350  42.2074317
  85.6686850  51.2087803  42.6155327  94.3583762  49.8688132  56.1416978
  93.8422811  49.0846589  55.9546907  95.2423711  49.5406849  56.3063497
  92.0194489  43.6129148  52.1012790  91.8219310  43.3044236  52.9856122
  92.6294195  44.3390786  52.2310720 100.0265824  54.1393095  55.2364731
 100.7569212  53.8778384  55.7972435  99.4172769  53.4021817  55.2766799
  98.1081121  52.2800958  55.8339183  97.3814284  52.1456923  55.2255674
  97.6928408  52.5877787  56.6395901  85.9311297  55.9990888  63.5986556
  86.8514307  56.1769487  63.7926602  85.8960880  55.0546933  63.4466255
  84.2315522  49.8723118  42.0740784  83.3246977  49.5756231  42.1503497
  84.5091503  49.5752936  41.2075070  78.9273370  53.9091922  56.2409337
  79.1459380  54.8409030  56.2597371  79.3399144  53.5499897  57.0264141
  87.7768136  43.4938054  49.8509322  88.3299174  43.9133508  50.5099345
  88.0138222  42.5673803  49.8932278  83.8001235  49.4825128  65.6312086
  83.6997962  50.4319485  65.5624177  83.5822777  49.1543367  64.7588156
  91.1546943  45.6038580  49.3587986  90.5745612  46.2623384  48.9766038
  90.8882876  44.7815924  48.9475403  89.6050509  45.0043637  51.5609306
  90.1050288  45.1160172  50.7523625  90.2486117  44.7004690  52.2010115
  83.6632505  52.9122267  64.4477147  83.1799587  53.7122627  64.6541036
  83.7493444  52.9230212  63.4944591  76.9318465  54.7450647  52.3698967
  76.9089153  54.8438334  51.4180850  77.2419101  55.5915797  52.6916133
  79.5905843  56.8026802  56.4845581  80.5449096  56.7710744  56.4175513
  79.3918366  56.3417425  57.2995807  80.1805225  55.3727918  59.0516379
  80.9998114  55.8671996  59.0751216  80.4542032  54.4559886  59.0233946
  89.9371821  47.7638670  48.4144334  89.0497676  48.0488321  48.1964529
  90.3525810  47.6032433  47.5671611  93.2886357  47.7885191  52.1298673
  94.0646747  48.2781643  52.4023290  92.5634491  48.2143245  52.5870543
  95.7258916  48.5012810  53.1872614  96.3203407  48.2608546  52.4765922
  95.7985499  47.7819941  53.8146150  77.9456071  62.3446421  53.5015779
  77.8110539  61.5846822  52.9353777  77.5288134  63.0687321  53.0344568
  89.0815034  57.5283345  42.5092354  89.7850885  57.7333347  43.1250010
  88.3577683  58.0960107  42.7741438  89.9112845  53.2793206  48.6294624
  89.8548046  53.7361757  47.7902257  90.4641187  52.5183891  48.4517467
  93.7217651  49.0682938  49.4544744  93.4654585  48.6679573  50.2852952
  93.0970519  49.7826732  49.3294883  98.0329989  51.8079011  51.9616035
  97.4729546  51.8772200  52.7347597  97.4273492  51.6319996  51.2415532
  81.1025197  63.2415738  53.7134222  80.9857581  64.1861171  53.6112912
  80.2817644  62.9389300  54.1020021  90.9901732  57.9665874  44.5590814
  91.8247336  57.5347072  44.3768289  90.8286075  57.7947888  45.4867709
  90.6447624  54.4697987  45.9247154  90.5896428  54.3042259  44.9835598
  90.0193679  55.1774020  46.0809343  75.4340139  49.7066052  59.7508576
  76.0799003  49.1965006  60.2395801  75.2257290  50.4434733  60.3252001
  87.9593531  56.7746899  65.2500716  88.8284691  56.9487551  64.8887351
  87.4800283  57.5941316  65.1276446  82.1279711  63.8944000  56.9290150
  83.0306958  63.9267610  57.2456645  81.9017082  62.9644451  56.9436486
  83.8833313  62.6474987  53.5900229  82.9328944  62.6476848  53.4764601
  84.1865800  61.9007721  53.0736263  87.7695869  40.5648873  49.7578409
  87.0028265  40.0107360  49.9035091  88.1806574  40.6370742  50.6192560
  79.7737630  46.8533669  63.8483590  80.6369092  46.4970473  64.0586915
  79.2003041  46.5147563  64.5358994  99.6186007  68.4835525  54.6545991
 100.2564417  68.3642272  53.9509331  99.5006850  69.4316369  54.7133943
  96.4275713  68.4362953  54.5907516  96.0894225  68.3204018  53.7028051
  97.2965481  68.0354118  54.5708522  92.2862529  70.2898429  50.5804407
  91.7227394  70.1988366  49.8120694  92.1714924  69.4698334  51.0606899
  96.9095496  69.5897805  60.5493721  96.8984137  69.1950603  59.6774225
  97.0716136  68.8563877  61.1427493  89.8326961  71.7849621  53.4188627
  90.6248253  71.4440446  53.0034926  90.0723611  71.8944596  54.3390780
  97.8662088  73.9569397  45.8918872  97.2150067  74.5423478  45.5052885
  98.6606450  74.4875592  45.9513909  91.7917715  71.0458534  46.2906006
  92.5648591  70.4987521  46.1518882  92.1443114  71.9102784  46.5020467
  93.6302757  72.3734917  59.4972905  93.3392623  73.2780547  59.3819572
  94.2659742  72.4151444  60.2116975  94.5558964  69.7511765  56.0874265
  95.1522536  69.5267788  55.3731228  94.6133936  69.0096511  56.6899713
  94.1283993  67.2051200  43.9224456  94.3809513  66.6832722  43.1607919
  93.1908552  67.0417346  44.0251139  99.1727275  66.2086979  51.7299199
  99.9590365  65.7906402  51.3789616  99.4365980  67.1133071  51.8980847
  99.3437353  71.6459829  46.4287856  98.7083186  71.7194456  47.1408761
  99.0134759  72.2353428  45.7506935 104.5735703  66.1462212  52.6332178
 105.3060875  65.5761429  52.8670007 103.8175058  65.7583812  53.0738683
  93.8480281  69.1079306  46.1248831  93.7316539  68.4324210  46.7929915
  93.9582541  68.6211680  45.3080984  96.1911822  68.5689454  49.8295520
  95.8270030  68.0420074  50.5408442  97.0478938  68.1787923  49.6562005
 102.0961123  59.8583786  57.0926786 101.7644448  60.7279197  56.8688001
 101.5006736  59.5420070  57.7720817  95.8317309  63.5979353  44.8256869
  95.9991712  64.4659590  45.1927340  95.6414478  63.7606635  43.9018158
  98.5892642  72.0596332  56.4922699  98.2893366  72.9621371  56.3838506
  98.2443702  71.7928515  57.3443852  92.0405124  68.5110129  52.5259403
  91.1155620  68.3786343  52.7337095  92.2889537  69.2904348  53.0229346
 101.9889786  64.5778872  54.1720136 101.0806664  64.5094281  53.8778897
 101.9377382  65.0550817  55.0001962  95.8106530  66.0537011  45.8103535
  95.6906155  66.4994061  46.6489016  95.1159119  66.4022328  45.2517074
  89.4013935  68.1543403  53.3603192  89.5306316  68.4077881  54.2742604
  88.7211386  68.7471111  53.0407847  93.5713422  78.8240652  49.4593667
  93.4937452  79.7748478  49.5382147  92.9675066  78.4786525  50.1168593
  96.0630652  65.9968518  62.1155034  95.2863986  66.5562438  62.1057898
  96.7021215  66.4825301  62.6369904 103.8551433  62.7795311  55.9498010
 103.2125813  63.0727844  55.3037805 103.3506361  62.6648231  56.7551207
 101.5091596  66.5258484  46.6383869 102.4209452  66.7585871  46.4631567
 101.0001243  67.1095528  46.0758948  94.3177024  68.8053971  61.6773001
  95.0591709  69.3439015  61.4007824  93.6114010  69.4320260  61.8344552
  99.7932364  70.9483112  60.2745162 100.2015720  70.5065522  59.5299794
  99.0709625  70.3735739  60.5279355  96.1463434  65.8855718  57.6478719
  96.9924629  66.3095132  57.7913368  96.0862072  65.2289343  58.3417282
 100.1161179  71.5084302  54.0297451  99.4870041  71.6730016  53.3273519
  99.7286841  71.9225912  54.8008415 103.9950411  72.4438740  51.3841815
 103.3101449  72.8237642  50.8338848 104.0794260  73.0534067  52.1173762
  99.2962879  63.5460087  59.3059893  99.0523811  64.3002147  58.7694168
  99.5722810  63.9245434  60.1407140 101.2501342  70.0898699  57.9837158
 101.4618237  70.7330459  57.3071539 101.2031090  69.2561016  57.5159088
  98.8527571  62.7016520  54.8873730  97.9912050  62.9997773  55.1790468
  98.8790006  62.9186919  53.9554763  95.6689140  71.2458710  51.2947536
  96.1327486  71.5246413  50.5052158  95.4045939  70.3442155  51.1120627
  92.5613222  70.7930192  54.2327299  93.1314579  71.2217460  53.5944784
  93.1521333  70.5112777  54.9311485  94.6058027  67.3681863  48.1037101
  95.3082070  67.8202906  48.5711027  94.2738655  66.7265682  48.7316994
  93.0538388  65.9593619  62.4788311  92.4237049  66.6409900  62.7123707
  92.9474476  65.8476701  61.5341449  88.3483361  65.6265415  53.4054235
  87.5582414  65.8822944  52.9294345  88.8394608  66.4413753  53.5106275
 102.3647170  72.9670655  56.1559516 103.1864614  72.5650842  55.8742197
 102.3609573  72.8638889  57.1075631  90.2998106  65.9909995  50.3637711
  89.5029269  66.1028689  50.8821207  90.0723698  66.3296647  49.4978602
  96.1303774  72.5154698  58.3120226  96.1948206  72.9775105  59.1478398
  95.4214697  71.8852063  58.4402536  86.6321063  65.8795906  55.8369225
  86.8829102  66.7642916  56.1026801  87.1680612  65.7000507  55.0644317
  95.8451791  74.1822805  48.1799206  95.7097466  75.0274341  48.6084054
  96.3861604  74.3842083  47.4165140  92.3319131  60.2614385  64.8413562
  91.9386076  59.7080584  65.5161206  93.1485271  60.5724964  65.2320079
  89.2981189  71.6998243  48.7527131  89.8105709  72.4941494  48.9032696
  89.9503901  71.0024534  48.6860733  91.1076073  74.8164000  50.8349885
  91.2842702  75.7381964  50.6470868  91.9032907  74.5022419  51.2644264
  95.2487092  61.6772264  62.4333818  95.9896805  62.2779418  62.3538281
  95.4805015  60.9349902  61.8751861  90.3928430  66.8628632  60.7112048
  90.2781945  65.9613889  61.0119147  89.5372948  67.1092328  60.3596864
  97.4720268  74.8046372  62.3099548  97.0284122  74.0182750  61.9920453
  98.1337481  74.9925522  61.6443439  92.2307389  76.3342174  56.8360227
  92.7814814  76.2059237  56.0637221  91.3918865  76.6337063  56.4855120
  99.5701506  75.0849172  60.3380950  99.5519981  75.9058053  59.8461219
 100.4921426  74.9603247  60.5631091  96.0274560  72.5993301  61.1804458
  96.5602897  71.8381590  60.9503766  95.4988641  72.3066953  61.9228613
  99.1944255  57.7053367  56.7098100  98.8508524  58.5955009  56.6337210
  99.5623217  57.5155025  55.8467685  87.2630105  70.0286898  49.5286702
  88.1005327  70.4383906  49.3120410  87.4408373  69.0886340  49.4986896
  99.1594537  67.6961978  45.2170535  98.6441161  68.4666583  45.4558922
  98.8871846  67.0227115  45.8403596  96.7441648  62.5411679  50.2755773
  95.8883245  62.1518530  50.0961412  97.1568600  62.6203640  49.4155559
  98.2740795  60.0758022  54.6747333  97.7705591  60.0388158  53.8615138
  98.5671402  60.9850765  54.7343990  94.5183681  60.1596752  53.6813515
  95.3836678  59.9639561  53.3219404  94.5861190  59.9307104  54.6082872
 104.1328812  70.4494333  47.1523708 103.3558254  70.1105493  46.7078870
 104.8120293  70.4546956  46.4778673  98.9480841  65.5689071  47.0430316
  98.6430976  65.8835220  47.8940459  99.9011283  65.6470490  47.0857649
  97.3927272  71.7279294  48.6923270  96.8648634  70.9932053  48.3796508
  96.8914775  72.5053970  48.4463238 102.3720118  69.9228314  53.8090316
 101.7143793  70.6127576  53.8970445 103.1760518  70.3124746  54.1524303
  92.1246000  62.3898960  51.0529882  92.6989752  62.1674142  50.3203075
  92.7116983  62.4587655  51.8058483 101.1825577  68.2772687  51.8594258
 101.6957459  68.9102679  52.3615968 101.8326801  67.6773883  51.4937618
  92.4515587  64.4203421  45.0725767  91.6152899  64.7578108  45.3935042
  92.3120357  64.2852401  44.1352904  94.4268668  59.2640209  49.7804951
  93.7733080  58.9489226  49.1561566  94.3849142  58.6415949  50.5064774
  95.5379873  69.5459504  41.6958243  94.6306934  69.3148758  41.8949392
  96.0350905  68.7497123  41.8832225  98.4447952  78.2557011  44.6154929
  97.7709650  78.5588708  45.2239887  98.8313774  79.0586092  44.2660386
  97.6606408  65.7522143  54.1052599  96.7428970  65.9737090  53.9474287
  98.0766552  65.8268453  53.2464306  98.4441456  67.1513558  49.2355279
  99.1913275  67.6634955  48.9262401  98.7133045  66.8297611  50.0959672
  96.7168106  69.6472099  46.2182233  95.8079325  69.3631132  46.3154703
  96.7463190  70.0671178  45.3585540 101.9487374  73.2578688  49.9873401
 101.4949701  72.4169598  50.0438591 101.3181340  73.8940087  50.3248181
 100.8920293  64.1870674  51.2174068 100.1543050  63.6748061  51.5484311
 101.1447067  63.7471056  50.4057345 100.3920313  75.0955185  50.9223219
 100.6843287  75.6560242  50.2035585 100.9018933  75.3883746  51.6776378
 100.9931920  56.9646926  51.8115837 101.2990797  56.1044290  51.5241753
 101.7184525  57.5564547  51.6114831  87.2856276  67.3677613  50.1997435
  87.0880676  66.7746974  49.4748502  86.7302940  67.0629823  50.9173374
  95.2653000  67.2600720  52.3192029  95.3201610  66.3074556  52.2434505
  94.4544202  67.4160159  52.8033327  96.4144194  71.1880843  43.5570312
  95.9763624  70.4716702  43.0975949  97.1554635  71.4156957  42.9955403
  93.2045360  65.8777779  50.0782407  92.3913226  66.1771950  50.4847600
  93.7004354  65.4833468  50.7956890  95.3553938  75.8735536  52.0116672
  95.3130117  76.0996383  51.0825204  96.2716637  75.6398911  52.1602473
  98.8019572  66.3419604  58.9097301  99.1568959  66.5691077  59.7691767
  99.4491703  66.6737981  58.2874557 104.5317309  69.4638040  49.6146630
 104.3935207  69.6539636  48.6867820 104.1753527  70.2257422  50.0714681
  92.6959435  63.4496135  55.6943642  93.3358814  63.3084894  54.9966606
  91.8636965  63.1630648  55.3182244 104.5586688  71.5314567  54.6257902
 104.9923195  71.4389856  55.4740956 105.2718269  71.5072067  53.9877918
  93.4719739  72.7498565  51.8078635  94.2660337  72.2548885  51.6061210
  92.7611431  72.2216428  51.4446340  98.2914583  75.1316661  56.1591002
  98.3451605  75.7007597  56.9268718  97.4229365  75.3018546  55.7945040
  89.7802502  66.8941647  47.8838388  88.8500090  66.8326102  48.1008350
  89.8759974  66.3717600  47.0875029  89.6988051  63.4196460  50.4716629
  89.9594869  64.3341793  50.3625790  90.5205224  62.9520902  50.6213242
  91.1712977  64.8334217  57.6415454  91.8436030  64.6251579  56.9928103
  90.3442763  64.6356303  57.2020686 105.4202238  71.5738267  57.1590787
 105.6138128  72.4784078  57.4050062 105.3202856  71.1145686  57.9929372
  97.0738549  61.4596158  59.6581115  96.4266464  62.1586108  59.5645591
  97.8439564  61.8932302  60.0257363 100.4817347  71.7245010  62.7331668
 100.3302853  71.4955562  61.8161752 100.4722026  72.6815611  62.7463013
  97.2502683  69.2976923  57.7177934  98.1794743  69.4488082  57.5446902
  96.8293713  69.3860944  56.8626581  96.0491015  73.3227587  55.4876472
  95.9102100  72.9546372  56.3602410  95.2605611  73.8375227  55.3160430
  96.6439167  78.4236684  46.8302008  96.8190922  77.9524727  47.6447631
  95.9571955  79.0502450  47.0583269  97.5996230  72.7009190  52.8765310
  97.2646062  72.6609960  53.7722960  97.1000176  72.0353906  52.4035720
  91.5740474  68.1076820  58.4017891  91.4360272  67.3757059  59.0029430
  92.4845397  68.0185720  58.1202079 100.5355422  70.0465224  43.1502369
  99.9184592  69.3212052  43.0535422 100.0671910  70.8074585  42.8069444
  94.2022774  67.8196779  57.8901571  94.9122393  67.1789971  57.8488189
  94.1592083  68.0709674  58.8127751 102.1909553  74.7564133  60.8108150
 102.1322099  74.0723353  60.1438733 102.5929072  75.4983123  60.3588776
  92.9151708  64.8061997  59.7097210  92.3789065  64.3552736  60.3618806
  92.3268417  64.9407906  58.9667674  91.2100252  81.5726046  53.6041869
  91.4496850  82.2044571  54.2820887  90.3669448  81.2214086  53.8907228
  92.3253967  64.2650649  42.2723674  91.4483434  64.1439449  41.9085920
  92.8011720  63.4736727  42.0202562 102.1926960  72.7203717  59.0422129
 101.3053739  72.3829638  59.1648528 102.7625511  71.9886748  59.2790895
  83.8456108  69.0527808  52.3665181  84.5327147  68.7389538  51.7786196
  83.6904236  69.9569173  52.0932432  88.6490830  63.9418005  56.7950204
  88.5649018  63.3343674  56.0600614  87.8273536  64.4327023  56.7959701
  95.7228114  77.3805169  56.0083373  95.6498285  78.1860140  56.5202677
  95.2805507  77.5797135  55.1831394  95.5117893  76.6176939  49.5186194
  94.7285415  77.1598619  49.6124419  96.2110639  77.1350919  49.9180435
  98.8214544  62.4271568  52.1620400  99.3183243  61.6741531  51.8421470
  98.0501525  62.4635885  51.5963609  98.1826797  77.2792003  58.1641531
  98.8954770  77.9139468  58.0917433  97.6916826  77.3755869  57.3481533
  99.9044324  71.1843256  49.7358823  98.9700603  71.3044718  49.5663527
 100.0820993  70.2815722  49.4718833  95.4049512  64.5688951  51.8892084
  95.0347300  64.0159992  52.5772990  95.9008605  63.9647085  51.3367084
 103.2916876  67.0260575  50.2708857 103.7577328  67.8588566  50.1969160
 103.7424376  66.5605556  50.9754116  93.2338711  75.0286446  58.9847102
  93.9348170  75.6622929  59.1376496  92.7633826  75.3701178  58.2242741
 101.3593107  73.3704396  47.2695009 101.6352951  73.2560991  48.1788883
 100.4897605  72.9721881  47.2307182 101.2633538  59.3941162  54.3099758
 100.3496618  59.6245389  54.4781965 101.6926640  59.4779606  55.1613791
 101.0339997  67.5831054  56.8099652 100.3811447  67.8306961  56.1552105
 101.4120377  66.7695192  56.4762130  97.9947171  77.6190747  50.9127823
  98.1769565  76.8012403  51.3755575  98.8180157  77.8358439  50.4752713
  98.3289336  76.5458932  48.1742871  98.8577103  76.0351387  47.5613033
  98.5917556  76.2301462  49.0388404  97.0827570  68.3250865  63.2965690
  96.4068207  68.2244994  63.9668065  97.9055204  68.1690079  63.7601687
  88.8306429  74.5622801  55.9178205  89.4159866  73.8166489  56.0506109
  88.6331267  74.8726758  56.8014869  91.6845084  77.5974049  50.9340647
  91.0155459  78.0820176  50.4504687  91.5457954  77.8443269  51.8484026
  83.4224084  67.1328402  54.6382648  83.4608183  66.5991992  55.4319766
  82.9164377  66.6063607  54.0193625  95.8250353  79.6317792  57.5323306
  96.3768661  79.7949414  58.2972391  96.1656546  80.2222230  56.8603330
  90.8014846  61.9792942  58.1345190  90.8656172  62.8407773  57.7222588
  90.7381966  61.3666944  57.4017549  90.2767119  64.0516075  61.7818224
  90.9039157  63.6693152  62.3955749  89.4195037  63.8330277  62.1473917
 100.6761227  74.4579050  63.3871960 101.2201131  75.0709008  62.8926915
 100.0948072  75.0158628  63.9038973  87.0532661  65.8592504  47.7136579
  87.3486102  64.9503182  47.6603633  86.1520697  65.8380243  47.3917582
  98.9618740  77.5799768  54.5186988  98.8369879  76.7789508  54.0097933
  99.6197831  78.0745961  54.0300958  90.5826908  63.9348500  53.6964128
  89.8613494  64.5484468  53.5571601  91.3720164  64.4706265  53.6180774
 101.0253648  75.3808788  56.1466538 100.0783984  75.2614139  56.0744864
 101.3736422  74.4931286  56.2292799  93.3853222  61.2702927  59.9704780
  93.9087624  61.5165223  60.7331089  93.1665555  62.1022962  59.5507917
  88.7820503  63.5406601  47.8375904  88.4533209  62.6603980  47.6551010
  89.1359874  63.4854270  48.7252294  98.0300082  75.1761504  52.3470890
  97.8825044  74.2478212  52.5278460  98.8553575  75.1981595  51.8627965
  91.8962326  63.8279571  48.2051382  92.2358399  64.3565493  47.4829990
  92.3434446  64.1659977  48.9809949 101.6334204  75.9990063  53.4335763
 102.5580751  75.7932924  53.2960214 101.4649507  75.7506464  54.3425104
  94.5905767  62.2116622  57.6554450  94.2502587  61.4124435  58.0575130
  93.8844773  62.5118333  57.0831283  95.2422239  59.2965934  56.1081773
  96.0648308  58.8226413  55.9860664  95.4860302  60.0756418  56.6080460
  93.8830473  62.3254193  46.4044675  94.6038836  62.7035446  45.9008392
  93.2595777  63.0443070  46.5079653  98.0261596  63.0299342  47.3403007
  98.2425210  63.9123980  47.0391835  97.5455663  62.6385555  46.6108649
  92.7660817  65.9885055  53.9173752  92.6205398  66.3025358  54.8098033
  92.2886021  66.6069955  53.3644650  94.6257200  62.9787603  53.9654641
  94.6118769  62.0828696  53.6286939  95.3429628  62.9858267  54.5992927
  96.4783331  63.4124943  56.0107769  96.2201109  64.3342014  56.0092099
  95.9468371  63.0155378  56.7008233 101.4229520  76.5175730  48.7897854
 101.5966397  75.9522153  48.0371707 101.9158411  77.3176625  48.6077344
  87.2406480  68.5290399  56.8561413  86.6959948  69.3050207  56.9881687
  88.1185829  68.8761204  56.6980534  94.0294096  61.8601983  49.2342212
  94.1510007  60.9318630  49.4333099  93.7396139  61.8740669  48.3220527
  96.8985287  59.5456894  52.3708931  96.9206983  59.6096227  51.4160911
  97.3153346  58.7061402  52.5649438 102.4104692  75.8342495  45.8894752
 103.1055597  76.4549187  46.1082067 102.7527842  74.9837846  46.1647130
  88.0272501  67.6560296  59.7491570  87.2854237  67.8042931  60.3356200
  87.7065246  67.9168561  58.8858319 104.3096115  73.2842200  47.4182083
 104.8347439  73.6229473  46.6931403 104.2218468  72.3489216  47.2345218
  95.9716164  77.1976274  59.5471960  96.2803291  76.9525421  60.4194659
  96.7691646  77.4022912  59.0590830  95.9936776  79.3514184  51.7777336
  95.5541766  78.8590562  52.4710193  96.7444893  78.8087151  51.5369412
  88.4729115  75.5425724  51.7801964  89.2987135  75.2429496  51.4000608
  88.1223167  74.7733347  52.2291753  93.4410648  74.8952193  53.8499638
  92.8190658  74.2322898  53.5501866  94.1115515  74.9213325  53.1673286
  86.6737720  73.4612051  52.7390898  85.8369628  73.0334225  52.5574899
  86.6461366  73.6544494  53.6761689  93.5135176  63.3733981  63.4432144
  93.5623331  64.2496104  63.0609914  94.0557690  62.8311374  62.8703787
 103.9990021  73.9175104  62.7233281 103.2085565  73.8999243  62.1837781
 103.7623376  74.4563398  63.4782318 104.1187896  70.7667570  60.0366010
 104.1685901  70.6017578  60.9781533 104.0101820  69.8994829  59.6463891
  93.0024155  73.4456116  47.3258099  93.1512276  74.1291580  46.6724771
  93.8090599  73.4261206  47.8407554 101.4091659  66.7498498  61.3525316
 102.3101522  66.6104963  61.0609314 101.4839633  66.9152953  62.2923494
  95.7434464  64.1265353  60.1978503  94.8737774  64.4198919  59.9261091
  95.9793945  64.7105798  60.9185766 105.6206093  73.1864512  60.2808031
 105.3290902  73.5494492  61.1171492 105.0078225  72.4731520  60.1021363
 103.8693282  68.3097126  58.7488089 104.3447403  68.5024773  57.9406941
 102.9458847  68.3656312  58.5031473  90.7576788  69.4721294  48.3319168
  90.5122830  68.5683624  48.5299378  90.9272703  69.4738444  47.3898646
  98.4473498  60.3444970  57.7143923  98.9655442  61.0805997  57.3890412
  98.0928631  60.6508963  58.5490682  90.0272436  65.2049651  45.8305329
  89.3341681  65.2794006  45.1745365  89.7824188  64.4409995  46.3526846
  98.6986092  56.7645253  53.2344820  98.9787846  56.0968442  53.8605246
  99.4836699  56.9574348  52.7219484  96.5019561  75.9404246  44.7969846
  95.9293528  76.5594434  44.3440318  97.0752354  76.4903608  45.3309768
 102.5694951  65.1862887  56.9816395 103.5212373  65.2860984  57.0028619
 102.3998401  64.3941155  57.4914479 100.5909330  62.2718470  57.1675796
  99.9959262  62.5523482  56.4722284 100.3059027  62.7612371  57.9392537
  99.7216820  76.2241397  45.9278428 100.6547494  76.1586958  46.1311304
  99.6340033  77.0597663  45.4692961 102.3504837  75.5407267  42.8882376
 102.2718469  75.2067131  43.7818134 103.1714504  76.0329035  42.8873848
 105.0483028  68.4069006  56.0958695 105.0159348  67.4685007  56.2818378
 105.6583652  68.4853043  55.3624519  96.8866359  67.2765059  42.1385899
  97.8325464  67.1471267  42.2074317  96.5080604  66.5379721  42.6155327
 105.1977517  65.1980050  56.1416978 104.6816565  64.4138506  55.9546907
 106.0817465  64.8698766  56.3063497 102.8588244  58.9421065  52.1012790
 102.6613065  58.6336153  52.9856122 103.4687949  59.6682704  52.2310720
  96.7705052  71.3282805  63.5986556  97.6908061  71.5061404  63.7926602
  96.7354635  70.3838851  63.4466255  95.0709276  65.2015036  42.0740784
  94.1640732  64.9048148  42.1503497  95.3485257  64.9044854  41.2075070
  85.9887217  66.5221399  52.5239830  85.6690001  65.6686707  52.2314204
  85.4420645  66.7369977  53.2797798  89.7667124  69.2383840  56.2409337
  89.9853134  70.1700948  56.2597371  90.1792898  68.8791814  57.0264141
  96.6871342  59.7451925  48.2285025  95.8772070  59.3999010  48.6040271
  97.3755759  59.4359469  48.8172637  98.6161890  58.8229972  49.8509322
  99.1692929  59.2425426  50.5099345  98.8531977  57.8965720  49.8932278
  94.6394990  64.8117046  65.6312086  94.5391717  65.7611403  65.5624177
  94.4216532  64.4835285  64.7588156  93.8408061  62.0601971  42.2152763
  94.7027225  62.3856869  42.4748580  94.0258405  61.2733467  41.7025829
  85.8575477  70.1424310  54.4932952  85.1638948  69.7278263  53.9802906
  86.6048468  70.1844847  53.8966371 101.9940697  60.9330497  49.3587986
 101.4139367  61.5915301  48.9766038 101.7276630  60.1107842  48.9475403
 100.4444264  60.3335555  51.5609306 100.9444042  60.4452090  50.7523625
 101.0879872  60.0296608  52.2010115  94.5026260  68.2414185  64.4477147
  94.0193341  69.0414545  64.6541036  94.5887199  68.2522129  63.4944591
  87.7712219  70.0742564  52.3698967  87.7482907  70.1730252  51.4180850
  88.0812856  70.9207715  52.6916133  90.4299597  72.1318719  56.4845581
  91.3842851  72.1002662  56.4175513  90.2312121  71.6709343  57.2995807
  91.0198979  70.7019835  59.0516379  91.8391868  71.1963914  59.0751216
  91.2935787  69.7851803  59.0233946 100.7765575  63.0930588  48.4144334
  99.8891431  63.3780238  48.1964529 101.1919565  62.9324351  47.5671611
 104.1280112  63.1177109  52.1298673 104.9040502  63.6073561  52.4023290
 103.4028246  63.5435163  52.5870543  88.7849826  77.6738339  53.5015779
  88.6504294  76.9138740  52.9353777  88.3681888  78.3979239  53.0344568
  99.9208789  72.8575262  42.5092354 100.6244639  73.0625265  43.1250010
  99.1971438  73.4252024  42.7741438 100.7506599  68.6085124  48.6294624
 100.6941801  69.0653675  47.7902257 101.3034942  67.8475808  48.4517467
 104.5611405  64.3974855  49.4544744 104.3048339  63.9971491  50.2852952
 103.9364273  65.1118649  49.3294883  91.9418952  78.5707656  53.7134222
  91.8251336  79.5153088  53.6112912  91.1211398  78.2681217  54.1020021
 101.8295486  73.2957792  44.5590814 102.6641090  72.8638990  44.3768289
 101.6679829  73.1239805  45.4867709 101.4841379  69.7989905  45.9247154
 101.4290182  69.6334176  44.9835598 100.8587434  70.5065938  46.0809343
  86.2733894  65.0357969  59.7508576  86.9192757  64.5256923  60.2395801
  86.0651045  65.7726651  60.3252001  98.7987286  72.1038817  65.2500716
  99.6678445  72.2779469  64.8887351  98.3194037  72.9233234  65.1276446
  94.7937504  59.2998014  45.5032472  94.7816174  60.2439854  45.6600743
  95.6860926  59.1168159  45.2091933  92.9673466  79.2235918  56.9290150
  93.8700713  79.2559528  57.2456645  92.7410836  78.2936369  56.9436486
  94.7227068  77.9766904  53.5900229  93.7722699  77.9768766  53.4764601
  95.0259554  77.2299639  53.0736263  98.6089623  55.8940790  49.7578409
  97.8422019  55.3399277  49.9035091  99.0200328  55.9662659  50.6192560
  90.6131385  62.1825586  63.8483590  91.4762846  61.8262391  64.0586915
  90.0396795  61.8439481  64.5358994 103.1256283  85.6190347  50.5804407
 102.5621149  85.5280284  49.8120694 103.0108678  84.7990252  51.0606899
 100.6720715  87.1141539  53.4188627 101.4642007  86.7732363  53.0034926
 100.9117366  87.2236514  54.3390780 102.6311469  86.3750452  46.2906006
 103.4042345  85.8279439  46.1518882 102.9836868  87.2394701  46.5020467
 104.4696512  87.7026834  59.4972905 104.1786378  88.6072465  59.3819572
 105.1053496  87.7443362  60.2116975 105.3952719  85.0803683  56.0874265
 105.9916291  84.8559705  55.3731228 105.4527690  84.3388428  56.6899713
 104.9677747  82.5343118  43.9224456 105.2203268  82.0124639  43.1607919
 104.0302306  82.3709264  44.0251139 104.6874036  84.4371224  46.1248831
 104.5710294  83.7616127  46.7929915 104.7976296  83.9503598  45.3080984
 102.8798878  83.8402047  52.5259403 101.9549375  83.7078261  52.7337095
 103.1283292  84.6196266  53.0229346 100.2407689  83.4835320  53.3603192
 100.3700071  83.7369799  54.2742604  99.5605141  84.0763028  53.0407847
 105.1570779  84.1345889  61.6773001 105.8985463  84.6730933  61.4007824
 104.4507764  84.7612178  61.8344552 103.4006976  86.1222110  54.2327299
 103.9708333  86.5509378  53.5944784 103.9915088  85.8404694  54.9311485
 103.8932143  81.2885537  62.4788311 103.2630803  81.9701818  62.7123707
 103.7868230  81.1768619  61.5341449  99.1877115  80.9557333  53.4054235
  98.3976169  81.2114862  52.9294345  99.6788362  81.7705671  53.5106275
 101.1391860  81.3201912  50.3637711 100.3423024  81.4320607  50.8821207
 100.9117453  81.6588565  49.4978602  97.4714818  81.2087824  55.8369225
  97.7222856  82.0934834  56.1026801  98.0074366  81.0292425  55.0644317
 103.1712885  75.5906303  64.8413562 102.7779831  75.0372502  65.5161206
 103.9879026  75.9016881  65.2320079 100.1374943  87.0290161  48.7527131
 100.6499464  87.8233411  48.9032696 100.7897656  86.3316452  48.6860733
 101.9469828  90.1455917  50.8349885 102.1236456  91.0673882  50.6470868
 102.7426661  89.8314337  51.2644264 101.2322184  82.1920549  60.7112048
 101.1175699  81.2905807  61.0119147 100.3766702  82.4384246  60.3596864
 103.0701143  91.6634091  56.8360227 103.6208568  91.5351155  56.0637221
 102.2312619  91.9628980  56.4855120  98.1023860  85.3578815  49.5286702
  98.9399082  85.7675824  49.3120410  98.2802128  84.4178258  49.4986896
 102.9639755  77.7190878  51.0529882 103.5383506  77.4966059  50.3203075
 103.5510737  77.7879572  51.8058483 103.2909342  79.7495339  45.0725767
 102.4546654  80.0870025  45.3935042 103.1514111  79.6144319  44.1352904
 105.2662422  74.5932127  49.7804951 104.6126835  74.2781144  49.1561566
 105.2242896  73.9707867  50.5064774  98.1250031  82.6969531  50.1997435
  97.9274431  82.1038891  49.4748502  97.5696695  82.3921741  50.9173374
 104.0439115  81.2069697  50.0782407 103.2306980  81.5063868  50.4847600
 104.5398109  80.8125386  50.7956890 103.5353189  78.7788053  55.6943642
 104.1752569  78.6376812  54.9966606 102.7030720  78.4922566  55.3182244
 104.3113493  88.0790483  51.8078635 105.1054092  87.5840803  51.6061210
 103.6005186  87.5508346  51.4446340 100.6196257  82.2233565  47.8838388
  99.6893845  82.1618020  48.1008350 100.7153729  81.7009517  47.0875029
 100.5381806  78.7488377  50.4716629 100.7988623  79.6633711  50.3625790
 101.3598978  78.2812820  50.6213242 102.0106731  80.1626135  57.6415454
 102.6829784  79.9543497  56.9928103 101.1836518  79.9648221  57.2020686
 102.4134228  83.4368738  58.4017891 102.2754026  82.7048976  59.0029430
 103.3239152  83.3477638  58.1202079 105.0416529  83.1488697  57.8901571
 105.7516148  82.5081889  57.8488189 104.9985837  83.4001592  58.8127751
 103.7545463  80.1353915  59.7097210 103.2182820  79.6844653  60.3618806
 103.1662171  80.2699824  58.9667674 103.1647722  79.5942566  42.2723674
 102.2877188  79.4731367  41.9085920 103.6405475  78.8028645  42.0202562
  94.6849862  84.3819726  52.3665181  95.3720902  84.0681456  51.7786196
  94.5297991  85.2861091  52.0932432  99.4884584  79.2709923  56.7950204
  99.4042773  78.6635592  56.0600614  98.6667291  79.7618941  56.7959701
 104.0732465  90.3578364  58.9847102 104.7741925  90.9914847  59.1376496
 103.6027580  90.6993096  58.2242741  99.6700183  89.8914719  55.9178205
 100.2553620  89.1458407  56.0506109  99.4725022  90.2018676  56.8014869
 102.5238839  92.9265967  50.9340647 101.8549214  93.4112094  50.4504687
 102.3851708  93.1735187  51.8484026  94.2617838  82.4620319  54.6382648
  94.3001938  81.9283910  55.4319766  93.7558131  81.9355525  54.0193625
 101.6408600  77.3084860  58.1345190 101.7049927  78.1699691  57.7222588
 101.5775721  76.6958861  57.4017549 101.1160873  79.3807992  61.7818224
 101.7432912  78.9985070  62.3955749 100.2588792  79.1622194  62.1473917
  97.8926416  81.1884421  47.7136579  98.1879857  80.2795100  47.6603633
  96.9914452  81.1672161  47.3917582 101.4220663  79.2640418  53.6964128
 100.7007249  79.8776386  53.5571601 102.2113919  79.7998183  53.6180774
 104.2246976  76.5994845  59.9704780 104.7481378  76.8457141  60.7331089
 104.0059310  77.4314879  59.5507917  99.6214257  78.8698519  47.8375904
  99.2926963  77.9895898  47.6551010  99.9753628  78.8146188  48.7252294
 102.7356080  79.1571489  48.2051382 103.0752153  79.6857410  47.4829990
 103.1828201  79.4951895  48.9809949 105.4299521  77.5408540  57.6554450
 105.0896342  76.7416353  58.0575130 104.7238528  77.8410251  57.0831283
 104.7224228  77.6546111  46.4044675 105.4432590  78.0327363  45.9008392
 104.0989532  78.3734987  46.5079653 103.6054572  81.3176973  53.9173752
 103.4599153  81.6317276  54.8098033 103.1279776  81.9361873  53.3644650
  98.0800234  83.8582317  56.8561413  97.5353702  84.6342125  56.9881687
  98.9579584  84.2053122  56.6980534 104.8687851  77.1893901  49.2342212
 104.9903762  76.2610547  49.4333099 104.5789893  77.2032587  48.3220527
  98.8666256  82.9852213  59.7491570  98.1247992  83.1334849  60.3356200
  98.5459000  83.2460479  58.8858319  99.3122870  90.8717642  51.7801964
 100.1380890  90.5721414  51.4000608  98.9616922  90.1025265  52.2291753
 104.2804403  90.2244110  53.8499638 103.6584412  89.5614815  53.5501866
 104.9509270  90.2505242  53.1673286  97.5131475  88.7903969  52.7390898
  96.6763383  88.3626143  52.5574899  97.4855120  88.9836412  53.6761689
 104.3528930  78.7025898  63.4432144 104.4017086  79.5788021  63.0609914
 104.8951444  78.1603291  62.8703787 103.8417910  88.7748034  47.3258099
 103.9906030  89.4583498  46.6724771 104.6484353  88.7553124  47.8407554
 101.5970543  84.8013211  48.3319168 101.3516585  83.8975541  48.5299378
 101.7666457  84.8030362  47.3898646 100.8666190  80.5341569  45.8305329
 100.1735435  80.6085924  45.1745365 100.6217942  79.7701913  46.3526846
  96.8280971  81.8513317  52.5239830  96.5083756  80.9978625  52.2314204
  96.2814399  82.0661895  53.2797798 100.6060879  84.5675758  56.2409337
 100.8246889  85.4992865  56.2597371 101.0186653  84.2083732  57.0264141
 105.4788744  80.1408963  65.6312086 105.3785471  81.0903320  65.5624177
 105.2610286  79.8127202  64.7588156 104.6801815  77.3893889  42.2152763
 105.5420979  77.7148787  42.4748580 104.8652160  76.6025384  41.7025829
  96.6969231  85.4716228  54.4932952  96.0032703  85.0570181  53.9802906
  97.4442222  85.5136765  53.8966371 105.3420014  83.5706102  64.4477147
 104.8587096  84.3706462  64.6541036 105.4280953  83.5814047  63.4944591
  98.6105974  85.4034482  52.3698967  98.5876662  85.5022169  51.4180850
  98.9206610  86.2499633  52.6916133 101.2693352  87.4610637  56.4845581
 102.2236605  87.4294579  56.4175513 101.0705875  87.0001261  57.2995807
 101.8592734  86.0311753  59.0516379 102.6785623  86.5255832  59.0751216
 102.1329541  85.1143721  59.0233946  99.6243580  93.0030256  53.5015779
  99.4898048  92.2430657  52.9353777  99.2075643  93.7271156  53.0344568
  97.1127648  80.3649887  59.7508576  97.7586512  79.8548841  60.2395801
  96.9044799  81.1018569  60.3252001 101.4525139  77.5117504  63.8483590
 102.3156601  77.1554309  64.0586915 100.8790550  77.1731399  64.5358994
  47.8525235  -2.7379502  40.3287175  48.0921833  -2.1060977  41.0066194
  47.0094432  -3.0891462  40.6152535  59.7681267   1.3084799  37.3049713
  59.2046132   1.2174736  36.5366001  59.6533662   0.4884704  37.7852206
  57.3145699   2.8035991  40.1433934  58.1066991   2.4626815  39.7280233
  57.5542349   2.9130966  41.0636087  65.3480825   4.9755767  32.6164178
  64.6968805   5.5609847  32.2298192  66.1425188   5.5061962  32.6759216
  59.2736453   2.0644904  33.0151313  60.0467329   1.5173891  32.8764188
  59.6261851   2.9289153  33.2265774  61.1121495   3.3921286  46.2218212
  60.8211361   4.2966917  46.1064878  61.7478480   3.4337814  46.9362281
  66.8256091   2.6646199  33.1533163  66.1901924   2.7380825  33.8654067
  66.4953497   3.2539798  32.4752242  66.0711380   3.0782702  43.2168006
  65.7712103   3.9807740  43.1083813  65.7262440   2.8114885  44.0689158
  59.5223862  -0.4703501  39.2504710  58.5974358  -0.6027287  39.4582402
  59.7708275   0.3090718  39.7474652  56.8832673  -0.8270228  40.0848499
  57.0125054  -0.5735749  40.9987911  56.2030124  -0.2342520  39.7653154
  61.0532160   9.8427022  36.1838973  60.9756190  10.7934847  36.2627454
  60.4493804   9.4972895  36.8413900  67.5979916   2.5270672  40.7542758
  66.9688779   2.6916386  40.0518825  67.2105578   2.9412281  41.5253722
  63.1507878   2.2645080  38.0192843  63.6146224   2.5432783  37.2297465
  62.8864676   1.3628525  37.8365933  60.0431959   1.8116562  40.9572606
  60.6133316   2.2403830  40.3190090  60.6340071   1.5299146  41.6556792
  69.8465908   3.9857024  42.8804822  70.6683352   3.5837211  42.5987504
  69.8428311   3.8825258  43.8320938  63.6122511   3.5341068  45.0365533
  63.6766944   3.9961475  45.8723704  62.9033435   2.9038432  45.1647842
  63.3270529   5.2009175  34.9044513  63.1916204   6.0460711  35.3329361
  63.8680341   5.4028453  34.1410447  56.7799926   2.7184613  35.4772438
  57.2924447   3.5127863  35.6278003  57.4322639   2.0210903  35.4106040
  58.5894811   5.8350369  37.5595191  58.7661439   6.7568334  37.3716175
  59.3851645   5.5208789  37.9889571  64.9539005   5.8232742  49.0344855
  64.5102860   5.0369120  48.7165760  65.6156219   6.0111892  48.3688746
  59.7126127   7.3528543  43.5605534  60.2633552   7.2245606  42.7882528
  58.8737602   7.6523432  43.2100426  67.0520243   6.1035541  47.0626256
  67.0338719   6.9244422  46.5706525  67.9740163   5.9789617  47.2876397
  63.5093298   3.6179671  47.9049765  64.0421634   2.8567959  47.6749073
  62.9807379   3.3253323  48.6473919  54.7448843   1.0473267  36.2532009
  55.5824065   1.4570276  36.0365716  54.9227111   0.1072709  36.2232202
  64.8746010   2.7465663  35.4168577  64.3467372   2.0118423  35.1041814
  64.3733513   3.5240340  35.1708545  65.9266689   9.2743381  31.3400236
  65.2528388   9.5775078  31.9485194  66.3132511  10.0772461  30.9905693
  69.4306111   4.2765058  36.7118707  68.9768438   3.4355968  36.7683898
  68.8000078   4.9126456  37.0493488  67.8739051   6.1141555  37.6468526
  68.1662025   6.6746612  36.9280891  68.3837671   6.4070116  38.4021685
  54.7675014  -1.6136017  36.9242742  54.5699414  -2.2066657  36.1993809
  54.2121678  -1.9183807  37.6418681  63.8962932   2.2067212  30.2815618
  63.4582362   1.4903071  29.8221256  64.6373373   2.4343327  29.7200710
  62.8372676   6.8921906  38.7361979  62.7948855   7.1182752  37.8070511
  63.7535375   6.6585280  38.8847780  60.9538477   3.7684935  38.5323941
  61.7479075   3.2735255  38.3306516  60.2430169   3.2402798  38.1691647
  65.7733321   6.1503030  42.8836309  65.8270343   6.7193967  43.6514025
  64.9048102   6.3204915  42.5190346  67.9636084   2.7431380  49.4576974
  67.8121591   2.5141931  48.5407058  67.9540764   3.7001981  49.4708320
  63.5309752   4.3413957  42.2121779  63.3920838   3.9732741  43.0847717
  62.7424349   4.8561596  42.0405736  64.1257904   9.4423053  33.5547315
  64.3009660   8.9711096  34.3692938  63.4390692  10.0688819  33.7828576
  65.0814968   3.7195559  39.6010616  64.7464800   3.6796329  40.4968266
  64.5818913   3.0540275  39.1281027  69.6728291   5.7750502  47.5353456
  69.6140837   5.0909722  46.8684039  70.0747809   6.5169492  47.0834082
  58.6918990  12.5912416  40.3287175  58.9315588  13.2230940  41.0066194
  57.8488186  12.2400456  40.6152535  51.3274845   0.0714178  39.0910487
  52.0145885  -0.2424092  38.5031503  51.1722974   0.9755543  38.8177739
  63.2046852   8.3991538  42.7328679  63.1317023   9.2046510  43.2447984
  62.7624245   8.5983504  41.9076701  62.9936631   7.6363309  36.2431501
  62.2104153   8.1784989  36.3369725  63.6929376   8.1537288  36.6425742
  65.6645535   8.2978373  44.8886838  66.3773507   8.9325837  44.8162739
  65.1735564   8.3942239  44.0726840  60.7157449   6.0472816  45.7092409
  61.4166908   6.6809299  45.8621803  60.2452564   6.3887548  44.9488048
  68.8411845   4.3890766  33.9940316  69.1171688   4.2747360  34.9034190
  67.9716343   3.9908251  33.9552489  65.4765909   8.6377117  37.6373129
  65.6588303   7.8198773  38.1000882  66.2998895   8.8544809  37.1998019
  65.8108074   7.5645302  34.8988178  66.3395840   7.0537756  34.2858340
  66.0736294   7.2487832  35.7633711  56.3125167   5.5809171  42.6423511
  56.8978604   4.8352859  42.7751416  56.1150005   5.8913128  43.5260175
  59.1663822   8.6160418  37.6585954  58.4974197   9.1006546  37.1749994
  59.0276692   8.8629639  38.5729332  50.9042821  -1.8485229  41.3627955
  50.9426921  -2.3821638  42.1565073  50.3983114  -2.3750023  40.7438932
  63.3069091  10.6504162  44.2568612  63.8587399  10.8135783  45.0217697
  63.6475284  11.2408600  43.5848637  68.1579965   5.4765419  50.1117267
  68.7019869   6.0895378  49.6172221  67.5766810   6.0344998  50.6284280
  66.4437478   8.5986137  41.2432294  66.3188617   7.7975877  40.7343240
  67.1016569   9.0932331  40.7546264  68.5072386   6.3995158  42.8711844
  67.5602722   6.2800509  42.7990171  68.8555159   5.5117656  42.9538106
  65.5118820   6.1947874  39.0716197  65.3643782   5.2664581  39.2523767
  66.3372313   6.2167964  38.5873272  69.1152941   7.0176432  40.1581069
  70.0399489   6.8119294  40.0205521  68.9468245   6.7692834  41.0670411
  68.9048258   7.5362100  35.5143161  69.0785135   6.9708522  34.7617013
  69.3977149   8.3362995  35.3322651  54.7225217  -0.4523231  43.5806720
  54.1778685   0.3236577  43.7126994  55.6004567  -0.1052426  43.4225841
  69.8923430   6.8528864  32.6140059  70.5874335   7.4735557  32.8327374
  70.2346580   6.0024216  32.8892437  55.5091239  -1.3253335  46.4736876
  54.7672975  -1.1770699  47.0601507  55.1883984  -1.0645069  45.6103626
  63.4534902   8.2162644  46.2717267  63.7622028   7.9711790  47.1439966
  64.2510384   8.4209282  45.7836137  63.4755514  10.3700553  38.5022643
  63.0360504   9.8776932  39.1955500  64.2263631   9.8273521  38.2614718
  55.9547853   6.5612094  38.5047271  56.7805873   6.2615866  38.1245915
  55.6041905   5.7919716  38.9537060  60.9229386   5.9138562  40.5744945
  60.3009395   5.2509267  40.2747173  61.5934253   5.9399694  39.8918593
  54.1556458   4.4798420  39.4636205  53.3188366   4.0520595  39.2820206
  54.1280103   4.6730864  40.4006996  71.4808759   4.9361474  49.4478588
  70.6904303   4.9185612  48.9083087  71.2442114   5.4749767  50.2027624
  60.4842893   4.4642486  34.0503405  60.6331013   5.1477950  33.3970078
  61.2909336   4.4447576  34.5652861  58.2395526   0.4907663  35.0564474
  57.9941568  -0.4130007  35.2544684  58.4091440   0.4924814  34.1143952
  63.9838298   6.9590616  31.5215153  63.4112266   7.5780803  31.0685625
  64.5571092   7.5089978  32.0555075  67.2035558   7.2427766  32.6523735
  68.1366231   7.1773328  32.8556610  67.1158771   8.0784033  32.1938268
  69.8323575   6.5593637  29.6127683  69.7537206   6.2253500  30.5063440
  70.6533242   7.0515404  29.6119155  64.2523790   2.3469175  50.3231862
  65.1726799   2.5247774  50.5171909  64.2173373   1.4025220  50.1711561
  57.2485862   0.2570210  42.9654643  57.4671872   1.1887317  42.9842677
  57.6611636  -0.1021816  43.7509447  53.3394215   1.1610680  41.2178258
  52.6457686   0.7464633  40.7048213  54.0867206   1.2031217  40.6211677
  55.2530957   1.0928934  39.0944273  55.2301645   1.1916621  38.1426156
  55.5631594   1.9394085  39.4161439  57.9118335   3.1505089  43.2090888
  58.8661588   3.1189031  43.1420819  57.7130859   2.6895713  44.0241114
  58.5017717   1.7206205  45.7761685  59.3210606   2.2150284  45.7996523
  58.7754525   0.8038173  45.7479253  56.2668564   8.6924708  40.2261086
  56.1323032   7.9325109  39.6599084  55.8500626   9.4165608  39.7589874
  67.4027527   3.8761632  29.2337661  68.1063377   4.0811634  29.8495316
  66.6790176   4.4438394  29.4986744  59.4237690   9.5894025  40.4379528
  59.3070074  10.5339458  40.3358218  58.6030136   9.2867587  40.8265327
  69.3114224   4.3144161  31.2836121  70.1459828   3.8825360  31.1013596
  69.1498567   4.1426175  32.2113015  66.2806024   3.1225186  51.9746023
  67.1497183   3.2965839  51.6132658  65.8012775   3.9419603  51.8521752
  60.4492204  10.2422287  43.6535457  61.3519450  10.2745898  43.9701952
  60.2229574   9.3122738  43.6681792  62.2045806   8.9953274  40.3145535
  61.2541437   8.9955135  40.2009908  62.5078292   8.2486008  39.7981570
  77.9398499  14.8313812  41.3791298  78.5776909  14.7120560  40.6754638
  77.8219342  15.7794656  41.4379250  74.7488206  14.7841240  41.3152822
  74.4106717  14.6682305  40.4273357  75.6177974  14.3832405  41.2953828
  70.6075021  16.6376717  37.3049713  70.0439886  16.5466654  36.5366001
  70.4927416  15.8176621  37.7852206  75.2307989  15.9376092  47.2739028
  75.2196629  15.5428890  46.4019532  75.3928628  15.2042165  47.8672799
  68.1539453  18.1327908  40.1433934  68.9460745  17.7918733  39.7280233
  68.3936103  18.2422883  41.0636087  76.1874580  20.3047684  32.6164178
  75.5362560  20.8901765  32.2298192  76.9818943  20.8353879  32.6759216
  70.1130207  17.3936822  33.0151313  70.8861083  16.8465809  32.8764188
  70.4655606  18.2581071  33.2265774  71.9515250  18.7213204  46.2218212
  71.6605116  19.6258835  46.1064878  72.5872234  18.7629731  46.9362281
  72.8771457  16.0990052  42.8119572  73.4735029  15.8746075  42.0976534
  72.9346428  15.3574798  43.4145019  72.4496485  13.5529488  30.6469762
  72.7022006  13.0311009  29.8853225  71.5121044  13.3895633  30.7496446
  77.4939768  12.5565266  38.4544506  78.2802857  12.1384689  38.1034923
  77.7578472  13.4611358  38.6226154  77.6649845  17.9938116  33.1533163
  77.0295678  18.0672743  33.8654067  77.3347251  18.5831715  32.4752242
  82.8948195  12.4940499  39.3577484  83.6273367  11.9239716  39.5915314
  82.1387551  12.1062100  39.7983990  72.1692774  15.4557594  32.8494137
  72.0529032  14.7802497  33.5175222  72.2795034  14.9689968  32.0326290
  74.5124315  14.9167741  36.5540827  74.1482522  14.3898362  37.2653748
  75.3691430  14.5266210  36.3807312  74.1529802   9.9457640  31.5502175
  74.3204204  10.8137877  31.9172646  73.9626971  10.1084922  30.6263464
  76.9105135  18.4074619  43.2168006  76.6105858  19.3099658  43.1083813
  76.5656194  18.1406803  44.0689158  70.3617616  14.8588416  39.2504710
  69.4368113  14.7264630  39.4582402  70.6102029  15.6382635  39.7474652
  80.3102279  10.9257160  40.8965443  79.4019156  10.8572568  40.6024204
  80.2589874  11.4029104  41.7247268  74.1319022  12.4015298  32.5348842
  74.0118648  12.8472349  33.3734322  73.4371611  12.7500616  31.9762380
  67.7226427  14.5021690  40.0848499  67.8518808  14.7556169  40.9987911
  67.0423879  15.0949398  39.7653154  71.8925915  25.1718940  36.1838973
  71.8149944  26.1226765  36.2627454  71.2887558  24.8264812  36.8413900
  74.3843144  12.3446805  48.8400340  73.6076478  12.9040725  48.8303205
  75.0233707  12.8303588  49.3615210  82.1763925   9.1273598  42.6743317
  81.5338305   9.4206131  42.0283111  81.6718853   9.0126518  43.4796513
  79.8304089  12.8736771  33.3629176  80.7421945  13.1064158  33.1876874
  79.3213736  13.4573815  32.8004255  72.6389517  15.1532259  48.4018307
  73.3804201  15.6917302  48.1253131  71.9326502  15.7798547  48.5589859
  78.1144856  17.2961399  46.9990469  78.5228212  16.8543809  46.2545101
  77.3922118  16.7214026  47.2524662  74.4675926  12.2334006  44.3724026
  75.3137121  12.6573419  44.5158675  74.4074564  11.5767630  45.0662589
  78.4373671  17.8562590  40.7542758  77.8082533  18.0208304  40.0518825
  78.0499333  18.2704199  41.5253722  82.3162903  18.7917027  38.1087121
  81.6313941  19.1715929  37.5584155  82.4006752  19.4012354  38.8419069
  77.6175372   9.8938374  46.0305199  77.3736304  10.6480435  45.4939475
  77.8935302  10.2723722  46.8652446  79.5713834  16.4376986  44.7082465
  79.7830730  17.0808746  44.0316846  79.5243583  15.6039303  44.2404395
  77.1740063   9.0494807  41.6119037  76.3124542   9.3476061  41.9035775
  77.2002498   9.2665206  40.6800070  73.9901633  17.5936998  38.0192843
  74.4539978  17.8724701  37.2297465  73.7258431  16.6920442  37.8365933
  70.8825714  17.1408479  40.9572606  71.4527071  17.5695748  40.3190090
  71.4733826  16.8591064  41.6556792  72.9270519  13.7160150  34.8282408
  73.6294562  14.1681194  35.2956334  72.5951147  13.0743969  35.4562301
  71.3750880  12.3071907  49.2033617  70.7449541  12.9888188  49.4369014
  71.2686968  12.1954988  48.2586755  66.6695853  11.9743703  40.1299541
  65.8794907  12.2301231  39.6539652  67.1607100  12.7892041  40.2351582
  80.6859662  19.3148942  42.8804822  81.5077106  18.9129129  42.5987504
  80.6822065  19.2117176  43.8320938  68.6210598  12.3388282  37.0883018
  67.8241761  12.4506976  37.6066514  68.3936190  12.6774934  36.2223909
  74.4516266  18.8632985  45.0365533  74.5160698  19.3253392  45.8723704
  73.7427190  18.2330350  45.1647842  64.9533556  12.2274193  42.5614532
  65.2041594  13.1121203  42.8272108  65.4893104  12.0478795  41.7889624
  88.7765655  15.6587690  39.2289794  88.0229364  15.0895088  39.0733798
  88.9113197  15.6250355  40.1760428  74.1664283  20.5301093  34.9044513
  74.0309958  21.3752628  35.3329361  74.7074096  20.7320370  34.1410447
  70.6531623   6.6092673  51.5658868  70.2598569   6.0558871  52.2406512
  71.4697763   6.9203251  51.9565386  67.6193681  18.0476531  35.4772438
  68.1318201  18.8419781  35.6278003  68.2716394  17.3502821  35.4106040
  69.4288566  21.1642287  37.5595191  69.6055194  22.0860252  37.3716175
  70.2245399  20.8500706  37.9889571  73.5699584   8.0250552  49.1579125
  74.3109297   8.6257705  49.0783587  73.8017507   7.2828189  48.5997167
  68.7140922  13.2106919  47.4357354  68.5994437  12.3092176  47.7364453
  67.8585440  13.4570616  47.0842171  75.7932760  21.1524659  49.0344855
  75.3496614  20.3661038  48.7165760  76.4549973  21.3403810  48.3688746
  70.5519881  22.6820461  43.5605534  71.1027306  22.5537524  42.7882528
  69.7131357  22.9815350  43.2100426  77.8913998  21.4327459  47.0626256
  77.8732473  22.2536340  46.5706525  78.8133918  21.3081534  47.2876397
  74.3487052  18.9471589  47.9049765  74.8815389  18.1859877  47.6749073
  73.8201133  18.6545240  48.6473919  65.5842598  16.3765185  36.2532009
  66.4217820  16.7862193  36.0365716  65.7620865  15.4364627  36.2232202
  77.4807030  14.0440266  31.9415842  76.9653653  14.8144870  32.1804229
  77.2084338  13.3705402  32.5648903  75.0654141   8.8889966  37.0001080
  74.2095737   8.4996817  36.8206719  75.4781093   8.9681927  36.1400865
  76.5953287   6.4236310  41.3992640  76.0918083   6.3866445  40.5860445
  76.8883894   7.3329052  41.4589296  72.8396173   6.5075039  40.4058821
  73.7049170   6.3117848  40.0464711  72.9073682   6.2785391  41.3328178
  82.4541304  16.7972620  33.8769015  81.6770747  16.4583780  33.4324177
  83.1332785  16.8025243  33.2023980  77.2693333  11.9167358  33.7675623
  76.9643468  12.2313507  34.6185766  78.2223775  11.9948778  33.8102956
  75.7139765  18.0757581  35.4168577  75.1861126  17.3410341  35.1041814
  75.2127267  18.8532257  35.1708545  80.6932611  16.2706602  40.5335623
  80.0356285  16.9605863  40.6215752  81.4973010  16.6603033  40.8769609
  70.4458492   8.7377247  37.7775188  71.0202244   8.5152429  37.0448381
  71.0329475   8.8065942  38.5303790  79.5038070  14.6250974  38.5839565
  80.0169951  15.2580966  39.0861274  80.1539293  14.0252170  38.2182925
  70.7728079  10.7681708  31.7971073  69.9365392  11.1056395  32.1180348
  70.6332849  10.6330688  30.8598210  72.7481160   5.6118496  36.5050258
  72.0945572   5.2967513  35.8806872  72.7061634   4.9894237  37.2310081
  73.8592365  15.8937791  28.4203550  72.9519427  15.6627045  28.6194699
  74.3563397  15.0975411  28.6077531  76.7660444  24.6035299  31.3400236
  76.0922143  24.9066995  31.9485194  77.1526266  25.4064379  30.9905693
  75.9818900  12.1000430  40.8297905  75.0641462  12.3215377  40.6719593
  76.3979044  12.1746740  39.9709613  76.7653948  13.4991845  35.9600586
  77.5125767  14.0113243  35.6507708  77.0345538  13.1775898  36.8204979
  75.0380598  15.9950386  32.9427540  74.1291818  15.7109419  33.0400010
  75.0675682  16.4149465  32.0830847  80.2699866  19.6056976  36.7118707
  79.8162193  18.7647886  36.7683898  79.6393832  20.2418374  37.0493488
  79.2132785  10.5348962  37.9419375  78.4755542  10.0226348  38.2729617
  79.4659559  10.0949343  37.1302652  78.7132805  21.4433472  37.6468526
  79.0055779  22.0038529  36.9280891  79.2231426  21.7362033  38.4021685
  65.6068769  13.7155900  36.9242742  65.4093169  13.1225261  36.1993809
  65.0515433  13.4108111  37.6418681  73.5865492  13.6079007  39.0437335
  73.6414102  12.6552843  38.9679812  72.7756694  13.7638446  39.5278634
  74.7356686  17.5359130  30.2815618  74.2976116  16.8194989  29.8221256
  75.4767127  17.7635245  29.7200710  71.5257852  12.2256067  36.8027714
  70.7125718  12.5250237  37.2092906  72.0216847  11.8311755  37.5202196
  73.6766430  22.2213823  38.7361979  73.6342609  22.4474670  37.8070511
  74.5929129  21.9877198  38.8847780  77.1232064  12.6897891  45.6342608
  77.4781452  12.9169364  46.4937074  77.7704195  13.0216268  45.0119863
  82.8529801  15.8116327  36.3391937  82.7147700  16.0017923  35.4113126
  82.4966020  16.5735710  36.7959988  71.0171927   9.7974422  42.4188949
  71.6571306   9.6563181  41.7211912  70.1849458   9.5108935  42.0427551
  82.8799181  17.8792854  41.3503208  83.3135687  17.7868143  42.1986263
  83.5930761  17.8550354  40.7123224  71.7932231  19.0976852  38.5323941
  72.5872829  18.6027173  38.3306516  71.0823923  18.5694716  38.1691647
  76.6127075  21.4794948  42.8836309  76.6664098  22.0485884  43.6514025
  75.7441857  21.6496833  42.5190346  68.1014994  13.2419934  34.6083694
  67.1712583  13.1804390  34.8253656  68.1972466  12.7195887  33.8120335
  68.0200544   9.7674747  37.1961936  68.2807361  10.6820080  37.0871096
  68.8417716   9.2999190  37.3458549  69.4925469  11.1812504  44.3660760
  70.1648522  10.9729866  43.7173409  68.6655255  10.9834590  43.9265993
  83.7414730  17.9216555  43.8836094  83.9350620  18.8262365  44.1295369
  83.6415348  17.4623974  44.7174679  75.3951041   7.8074445  46.3826421
  74.7478956   8.5064395  46.2890898  76.1652056   8.2410589  46.7502669
  78.8029839  18.0723297  49.4576974  78.6515345  17.8433849  48.5407058
  78.7934518  19.0293899  49.4708320  75.5715175  15.6455210  44.4423241
  76.5007235  15.7966370  44.2692208  75.1506205  15.7339231  43.5871887
  74.3703507  19.6705874  42.2121779  74.2314593  19.3024659  43.0847717
  73.5818103  20.1853514  42.0405736  74.9651659  24.7714971  33.5547315
  75.1403415  24.3003014  34.3692938  74.2784447  25.3980737  33.7828576
  75.9208722  19.0487477  39.6010616  75.5858555  19.0088247  40.4968266
  75.4212668  18.3832193  39.1281027  69.8952966  14.4555107  45.1263198
  69.7572764  13.7235346  45.7274737  70.8057890  14.3664007  44.8447385
  78.8567914  16.3943512  29.8747676  78.2397084  15.6690340  29.7780729
  78.3884402  17.1552872  29.5314750  72.5235267  14.1675067  44.6146877
  73.2334885  13.5268259  44.5733496  72.4804575  14.4187961  45.5373058
  80.5122045  21.1042420  47.5353456  80.4534592  20.4201640  46.8684039
  80.9141564  21.8461410  47.0834082  71.2364201  11.1540284  46.4342517
  70.7001558  10.7031023  47.0864113  70.6480909  11.2886193  45.6912981
  70.6466460  10.6128936  28.9968980  69.7695926  10.4917737  28.6331227
  71.1224213   9.8215014  28.7447869  80.5139453  19.0682004  45.7667436
  79.6266231  18.7307926  45.8893835  81.0838004  18.3365035  46.0036201
  62.1668600  15.4006096  39.0910487  62.8539640  15.0867826  38.5031503
  62.0116729  16.3047460  38.8177739  66.9703322  10.2896292  43.5195511
  66.8861511   9.6821962  42.7845921  66.1486028  10.7805310  43.5205007
  74.0440606  23.7283456  42.7328679  73.9710778  24.5338428  43.2447984
  73.6017999  23.9275422  41.9076701  73.8330386  22.9655226  36.2431501
  73.0497908  23.5076906  36.3369725  74.5323131  23.4829206  36.6425742
  77.1427036   8.7749856  38.8865706  77.6395735   8.0219818  38.5666776
  76.3714017   8.8114172  38.3208915  84.9956793  14.4790221  40.5283998
  84.9846669  15.3614937  40.1577931  84.1274173  14.1261772  40.3338535
  76.5039290  23.6270290  44.8886838  77.2167262  24.2617755  44.8162739
  76.0129318  23.7234156  44.0726840  78.2256817  17.5321543  36.4604130
  77.2913095  17.6523005  36.2908834  78.4033485  16.6294010  36.1964139
  73.7262005  10.9167239  38.6137391  73.3559792  10.3638279  39.3018296
  74.2221097  10.3125372  38.0612391  81.6129368  13.3738862  36.9954164
  82.0789820  14.2066854  36.9214466  82.0636868  12.9083844  37.6999422
  71.5551203  21.3764734  45.7092409  72.2560663  22.0101217  45.8621803
  71.0846318  21.7179465  44.9488048  79.6805599  19.7182683  33.9940316
  79.9565443  19.6039278  34.9034190  78.8110098  19.3200168  33.9552489
  79.3552489  13.9309341  43.5344959  78.7023939  14.1785249  42.8797412
  79.7332869  13.1173479  43.2007436  76.3159663  23.9669034  37.6373129
  76.4982058  23.1490690  38.1000882  77.1392649  24.1836727  37.1998019
  76.6501829  22.8937219  34.8988178  77.1789595  22.3829674  34.2858340
  76.9130048  22.5779750  35.7633711  75.4040062  14.6729152  50.0210996
  74.7280699  14.5723281  50.6913371  76.2267696  14.5168366  50.4846993
  70.0057576  23.9452336  37.6585954  69.3367952  24.4298464  37.1749994
  69.8670446  24.1921557  38.5729332  61.7436576  13.4806689  41.3627955
  61.7820675  12.9470280  42.1565073  61.2376869  12.9541894  40.7438932
  69.1227338   8.3271229  44.8590497  69.1868665   9.1886060  44.4467895
  69.0594459   7.7145231  44.1262855  68.5979611  10.3994362  48.5063531
  69.2251650  10.0171439  49.1201055  67.7407530  10.1808564  48.8719224
  78.9973719  20.8057337  50.1117267  79.5413623  21.4187295  49.6172221
  78.4160564  21.3636916  50.6284280  65.3745154  12.2070791  34.4381886
  65.6698595  11.2981469  34.3848940  64.4733189  12.1858531  34.1162888
  77.2831232  23.9278055  41.2432294  77.1582372  23.1267795  40.7343240
  77.9410323  24.4224249  40.7546264  68.9039401  10.2826788  40.4209435
  68.1825986  10.8962755  40.2816908  69.6932656  10.8184552  40.3426080
  79.3466141  21.7287075  42.8711844  78.3996476  21.6092426  42.7990171
  79.6948914  20.8409573  42.9538106  71.7065714   7.6181214  46.6950086
  72.2300116   7.8643511  47.4576396  71.4878047   8.4501249  46.2753224
  67.1032995   9.8884889  34.5621211  66.7745701   9.0082268  34.3796317
  67.4572366   9.8332557  35.4497600  76.3512574  21.5239791  39.0716197
  76.2037536  20.5956499  39.2523767  77.1766067  21.5459882  38.5873272
  70.2174818  10.1757859  34.9296689  70.5570891  10.7043780  34.2075297
  70.6646939  10.5138265  35.7055255  79.9546696  22.3468350  40.1581069
  80.8793243  22.1411212  40.0205521  79.7861999  22.0984751  41.0670411
  72.9118259   8.5594909  44.3799757  72.5715079   7.7602722  44.7820437
  72.2057265   8.8596620  43.8076590  73.5634731   5.6444222  42.8327080
  74.3860800   5.1704700  42.7105970  73.8072794   6.4234705  43.3325766
  72.2042965   8.6732480  33.1289982  72.9251328   9.0513733  32.6253698
  71.5808270   9.3921357  33.2324959  76.3474088   9.3777629  34.0648314
  76.5637703  10.2602267  33.7637142  75.8668155   8.9863842  33.3353956
  71.0873310  12.3363342  40.6419058  70.9417890  12.6503645  41.5343340
  70.6098513  12.9548243  40.0889957  72.9469693   9.3265890  40.6899948
  72.9331261   8.4306984  40.3532246  73.6642121   9.3336554  41.3238234
  74.7995823   9.7603231  42.7353075  74.5413601  10.6820301  42.7337406
  74.2680864   9.3633665  43.4253540  79.7442012  22.8654018  35.5143161
  79.9178890  22.3000440  34.7617013  80.2370903  23.6654913  35.3322651
  65.5618972  14.8768687  43.5806720  65.0172440  15.6528495  43.7126994
  66.4398322  15.2239491  43.4225841  72.3506589   8.2080271  35.9587518
  72.4722500   7.2796917  36.1578406  72.0608631   8.2218957  35.0465834
  85.5981403  15.6290441  37.1333461  86.0412549  14.8797766  36.7352584
  84.7207914  15.6200577  36.7507193  80.7317185  22.1820782  32.6140059
  81.4268089  22.8027475  32.8327374  81.0740335  21.3316133  32.8892437
  66.3484994  14.0038583  46.4736876  65.6066730  14.1521218  47.0601507
  66.0277738  14.2646849  45.6103626  82.6308608  19.6320488  34.1427390
  83.1559932  19.9707760  33.4176710  82.5430960  18.6967503  33.9590525
  74.2928656  23.5454561  46.2717267  74.6015783  23.3003708  47.1439966
  75.0904138  23.7501200  45.7836137  74.3149268  25.6992471  38.5022643
  73.8754259  25.2068850  39.1955500  75.0657385  25.1565438  38.2614718
  66.7941607  21.8904012  38.5047271  67.6199627  21.5907784  38.1245915
  66.4435659  21.1211634  38.9537060  71.7623141  21.2430480  40.5744945
  71.1403150  20.5801185  40.2747173  72.4328007  21.2691612  39.8918593
  71.8347668   9.7212268  50.1677451  71.8835824  10.5974391  49.7855220
  72.3770182   9.1789661  49.5949094  82.3202514  20.2653391  49.4478588
  81.5298057  20.2477530  48.9083087  82.0835868  20.8041685  50.2027624
  82.4400389  17.1145858  46.7611316  82.4898394  16.9495865  47.7026839
  82.3314312  16.2473117  46.3709197  71.3236647  19.7934403  34.0503405
  71.4724768  20.4769868  33.3970078  72.1303091  19.7739493  34.5652861
  79.7304151  13.0976786  48.0770623  80.6314014  12.9583250  47.7854621
  79.8052126  13.2631240  49.0168801  74.0646956  10.4743640  46.9223809
  73.1950266  10.7677206  46.6506398  74.3006437  11.0584085  47.6431073
  83.9418586  19.5342799  47.0053338  83.6503394  19.8972780  47.8416799
  83.3290717  18.8209807  46.8266670  85.1414268  17.0995679  39.5255908
  85.9761159  17.5385483  39.6893469  85.2773397  16.6234332  38.7064154
  82.1905774  14.6575414  45.4733396  82.6659895  14.8503060  44.6652247
  81.2671339  14.7134600  45.2276780  69.0789280  15.8199581  35.0564474
  68.8335322  14.9161911  35.2544684  69.2485195  15.8216731  34.1143952
  76.7685990   6.6923257  44.4389230  77.2867934   7.4284284  44.1135718
  76.4141123   6.9987251  45.2735989  68.3484928  11.5527938  32.5550636
  67.6554173  11.6272293  31.8990672  68.1036680  10.7888282  33.0772153
  74.8232053  22.2882534  31.5215153  74.2506020  22.9072721  31.0685625
  75.3964847  22.8381895  32.0555075  80.8907443  11.5341174  43.7061702
  81.8424866  11.6339271  43.7273926  80.7210893  10.7419442  44.2159786
  78.9121822   8.6196757  43.8921102  78.3171754   8.9001770  43.1967591
  78.6271519   9.1090658  44.6637844  78.0429313  22.5719684  32.6523735
  78.9759986  22.5065246  32.8556610  77.9552526  23.4075951  32.1938268
  80.6717329  21.8885554  29.6127683  80.5930961  21.5545418  30.5063440
  81.4926996  22.3807322  29.6119155  83.3695521  14.7547293  42.8204001
  83.3371841  13.8163294  43.0063685  83.9796144  14.8331330  42.0869826
  75.2078851  13.6243346  28.8631205  76.1537956  13.4949555  28.9319623
  74.8293096  12.8858008  29.3400633  83.5190009  11.5458337  42.8662284
  83.0029058  10.7616794  42.6792213  84.4029958  11.2177054  43.0308804
  89.1872070  15.8163300  41.9610038  89.9175459  15.5548588  42.5217741
  88.5779016  15.0792022  42.0012106  87.2687368  13.9571163  42.5584489
  86.5420531  13.8227128  41.9500981  86.8534654  14.2647992  43.3641207
  75.0917544  17.6761093  50.3231862  76.0120553  17.8539692  50.5171909
  75.0567127  16.7317138  50.1711561  73.3921769  11.5493323  28.7986090
  72.4853224  11.2526436  28.8748804  73.6697750  11.2523141  27.9320377
  64.3099709  12.8699686  39.2485137  63.9902493  12.0164994  38.9559511
  63.7633137  13.0848264  40.0043104  68.0879617  15.5862127  42.9654643
  68.3065626  16.5179235  42.9842677  68.5005390  15.2270102  43.7509447
  75.0083834   6.0930213  34.9530332  74.1984563   5.7477298  35.3285578
  75.6968251   5.7837756  35.5417943  72.9607482  11.1595333  52.3557392
  72.8604209  12.1089690  52.2869483  72.7429024  10.8313572  51.4833462
  72.1620553   8.4080258  28.9398070  73.0239717   8.7335156  29.1993887
  72.3470897   7.6211754  28.4271135  64.1787969  16.4902598  41.2178258
  63.4851440  16.0756551  40.7048213  64.9260960  16.5323134  40.6211677
  72.8238752  14.5892472  51.1722454  72.3405834  15.3892832  51.3786343
  72.9099691  14.6000417  50.2189898  66.0924712  16.4220852  39.0944273
  66.0695400  16.5208539  38.1426156  66.4025348  17.2686002  39.4161439
  68.7512089  18.4797007  43.2090888  69.7055343  18.4480949  43.1420819
  68.5524613  18.0187630  44.0241114  69.3411472  17.0498123  45.7761685
  70.1604361  17.5442201  45.7996523  69.6148279  16.1330091  45.7479253
  79.0978068   9.4408875  35.1389641  78.2103923   9.7258526  34.9209836
  79.5132057   9.2802638  34.2916918  82.4492604   9.4655396  38.8543980
  83.2252994   9.9551848  39.1268597  81.7240738   9.8913450  39.3115850
  84.8865163  10.1783015  39.9117921  85.4809653   9.9378751  39.2011229
  84.9591746   9.4590146  40.5391457  78.2421281  19.2053550  29.2337661
  78.9457131  19.4103552  29.8495316  77.5183930  19.7730311  29.4986744
  79.0719092  14.9563411  35.3539931  79.0154293  15.4131962  34.5147563
  79.6247434  14.1954095  35.1762774  82.8823897  10.7453143  36.1790051
  82.6260832  10.3449778  37.0098258  82.2576765  11.4596937  36.0540190
  87.1936235  13.4849216  38.6861342  86.6335793  13.5542405  39.4592904
  86.5879739  13.3090201  37.9660838  70.2631444  24.9185943  40.4379528
  70.1463828  25.8631376  40.3358218  69.4423890  24.6159505  40.8265327
  80.1507979  19.6436079  31.2836121  80.9853583  19.2117277  31.1013596
  79.9892322  19.4718092  32.2113015  79.8053871  16.1468192  32.6492460
  79.7502675  15.9812464  31.7080904  79.1799926  16.8544225  32.8054650
  64.5946386  11.3836256  46.4753882  65.2405249  10.8735210  46.9641108
  64.3863537  12.1204938  47.0497308  77.1199778  18.4517104  51.9746023
  77.9890938  18.6257756  51.6132658  76.6406529  19.2711521  51.8521752
  73.1149996   5.6476301  32.2277779  73.1028666   6.5918141  32.3846049
  74.0073418   5.4646447  31.9337240  71.2885958  25.5714205  43.6535457
  72.1913205  25.6037815  43.9701952  71.0623328  24.6414656  43.6681792
  73.0439560  24.3245192  40.3145535  72.0935191  24.3247053  40.2009908
  73.3472046  23.5777926  39.7981570  68.9343877   8.5303874  50.5728897
  69.7975338   8.1740678  50.7832221  68.3609287   8.1917768  51.2604301
  88.7792254  30.1605730  41.3791298  89.4170664  30.0412477  40.6754638
  88.6613097  31.1086574  41.4379250  85.5881960  30.1133158  41.3152822
  85.2500472  29.9974223  40.4273357  86.4571728  29.7124323  41.2953828
  86.0701743  31.2668010  47.2739028  86.0590384  30.8720808  46.4019532
  86.2322382  30.5334082  47.8672799  87.0268334  35.6339602  32.6164178
  86.3756314  36.2193683  32.2298192  87.8212697  36.1645797  32.6759216
  80.9523962  32.7228739  33.0151313  81.7254838  32.1757726  32.8764188
  81.3049360  33.5872989  33.2265774  82.7909004  34.0505122  46.2218212
  82.4998870  34.9550752  46.1064878  83.4265988  34.0921649  46.9362281
  83.7165211  31.4281970  42.8119572  84.3128783  31.2037992  42.0976534
  83.7740183  30.6866716  43.4145019  83.2890239  28.8821405  30.6469762
  83.5415760  28.3602927  29.8853225  82.3514798  28.7187551  30.7496446
  88.3333522  27.8857184  38.4544506  89.1196611  27.4676607  38.1034923
  88.5972227  28.7903276  38.6226154  88.5043600  33.3230034  33.1533163
  87.8689433  33.3964661  33.8654067  88.1741006  33.9123633  32.4752242
  93.7341949  27.8232417  39.3577484  94.4667121  27.2531634  39.5915314
  92.9781305  27.4354017  39.7983990  83.0086528  30.7849511  32.8494137
  82.8922786  30.1094415  33.5175222  83.1188788  30.2981885  32.0326290
  85.3518069  30.2459658  36.5540827  84.9876276  29.7190279  37.2653748
  86.2085185  29.8558127  36.3807312  91.2567370  21.5353991  43.8172093
  90.9250694  22.4049402  43.5933308  90.6612983  21.2190275  44.4966123
  84.9923556  25.2749558  31.5502175  85.1597958  26.1429795  31.9172646
  84.8020725  25.4376840  30.6263464  87.7498889  33.7366537  43.2168006
  87.4499612  34.6391576  43.1083813  87.4049949  33.4698720  44.0689158
  81.2011371  30.1880334  39.2504710  80.2761867  30.0556548  39.4582402
  81.4495784  30.9674553  39.7474652  91.1496033  26.2549077  40.8965443
  90.2412910  26.1864486  40.6024204  91.0983629  26.7321022  41.7247268
  84.9712777  27.7307216  32.5348842  84.8512402  28.1764266  33.3734322
  84.2765365  28.0792533  31.9762380  85.2236899  27.6738723  48.8400340
  84.4470233  28.2332643  48.8303205  85.8627462  28.1595506  49.3615210
  93.0157679  24.4565516  42.6743317  92.3732060  24.7498049  42.0283111
  92.5112608  24.3418436  43.4796513  90.6697843  28.2028689  33.3629176
  91.5815699  28.4356076  33.1876874  90.1607490  28.7865733  32.8004255
  83.4783271  30.4824176  48.4018307  84.2197955  31.0209220  48.1253131
  82.7720257  31.1090465  48.5589859  88.9538611  32.6253317  46.9990469
  89.3621967  32.1835727  46.2545101  88.2315872  32.0505944  47.2524662
  85.3069681  27.5625923  44.3724026  86.1530876  27.9865337  44.5158675
  85.2468318  26.9059548  45.0662589  89.2767425  33.1854507  40.7542758
  88.6476288  33.3500221  40.0518825  88.8893087  33.5996117  41.5253722
  93.1556657  34.1208945  38.1087121  92.4707695  34.5007846  37.5584155
  93.2400507  34.7304272  38.8419069  88.4569126  25.2230292  46.0305199
  88.2130058  25.9772352  45.4939475  88.7329057  25.6015639  46.8652446
  90.4107589  31.7668904  44.7082465  90.6224484  32.4100664  44.0316846
  90.3637337  30.9331221  44.2404395  88.0133818  24.3786725  41.6119037
  87.1518297  24.6767978  41.9035775  88.0396252  24.5957124  40.6800070
  83.7664273  29.0452068  34.8282408  84.4688317  29.4973111  35.2956334
  83.4344902  28.4035887  35.4562301  82.2144635  27.6363824  49.2033617
  81.5843295  28.3180105  49.4369014  82.1080723  27.5246906  48.2586755
  91.5253417  34.6440860  42.8804822  92.3470861  34.2421047  42.5987504
  91.5215820  34.5409094  43.8320938  79.4604353  27.6680200  37.0883018
  78.6635516  27.7798894  37.6066514  79.2329945  28.0066852  36.2223909
  85.2910020  34.1924903  45.0365533  85.3554453  34.6545310  45.8723704
  84.5820944  33.5622268  45.1647842  99.6159410  30.9879608  39.2289794
  98.8623118  30.4187006  39.0733798  99.7506951  30.9542273  40.1760428
  81.4925378  21.9384590  51.5658868  81.0992323  21.3850789  52.2406512
  82.3091518  22.2495169  51.9565386  84.4093339  23.3542469  49.1579125
  85.1503052  23.9549622  49.0783587  84.6411261  22.6120107  48.5997167
  79.5534677  28.5398837  47.4357354  79.4388192  27.6384094  47.7364453
  78.6979194  28.7862533  47.0842171  86.6326514  36.4816577  49.0344855
  86.1890369  35.6952955  48.7165760  87.2943728  36.6695727  48.3688746
  88.7307752  36.7619377  47.0626256  88.7126228  37.5828258  46.5706525
  89.6527672  36.6373452  47.2876397  85.1880807  34.2763506  47.9049765
  85.7209143  33.5151794  47.6749073  84.6594888  33.9837158  48.6473919
  88.3550502  19.3823572  43.4343406  88.0114771  20.2725214  43.3582517
  88.7229464  19.1925230  42.5712991  88.3200784  29.3732183  31.9415842
  87.8047408  30.1436788  32.1804229  88.0478093  28.6997319  32.5648903
  85.9047895  24.2181884  37.0001080  85.0489492  23.8288735  36.8206719
  86.3174847  24.2973845  36.1400865  87.4347042  21.7528227  41.3992640
  86.9311837  21.7158363  40.5860445  87.7277649  22.6620970  41.4589296
  83.6789928  21.8366957  40.4058821  84.5442925  21.6409766  40.0464711
  83.7467437  21.6077309  41.3328178  93.2935058  32.1264538  33.8769015
  92.5164501  31.7875697  33.4324177  93.9726539  32.1317161  33.2023980
  88.1087087  27.2459275  33.7675623  87.8037223  27.5605425  34.6185766
  89.0617530  27.3240695  33.8102956  91.5326365  31.5998519  40.5335623
  90.8750040  32.2897781  40.6215752  92.3366764  31.9894951  40.8769609
  81.2852247  24.0669165  37.7775188  81.8595999  23.8444347  37.0448381
  81.8723229  24.1357860  38.5303790  90.3431824  29.9542892  38.5839565
  90.8563706  30.5872884  39.0861274  90.9933048  29.3544087  38.2182925
  81.6121834  26.0973626  31.7971073  80.7759146  26.4348313  32.1180348
  81.4726604  25.9622606  30.8598210  83.5874915  20.9410414  36.5050258
  82.9339327  20.6259431  35.8806872  83.5455389  20.3186154  37.2310081
  84.6986119  31.2229709  28.4203550  83.7913181  30.9918962  28.6194699
  85.1957151  30.4267328  28.6077531  87.6054198  39.9327216  31.3400236
  86.9315897  40.2358913  31.9485194  87.9920020  40.7356297  30.9905693
  86.8212655  27.4292347  40.8297905  85.9035216  27.6507294  40.6719593
  87.2372799  27.5038658  39.9709613  87.6047703  28.8283763  35.9600586
  88.3519522  29.3405160  35.6507708  87.8739292  28.5067816  36.8204979
  85.8774353  31.3242304  32.9427540  84.9685572  31.0401337  33.0400010
  85.9069437  31.7441382  32.0830847  91.1093620  34.9348893  36.7118707
  90.6555947  34.0939803  36.7683898  90.4787587  35.5710292  37.0493488
  90.0526540  25.8640879  37.9419375  89.3149297  25.3518266  38.2729617
  90.3053313  25.4241261  37.1302652  89.5526560  36.7725390  37.6468526
  89.8449534  37.3330447  36.9280891  90.0625180  37.0653951  38.4021685
  90.1538167  18.6417131  38.5361144  90.4597044  17.7814495  38.2487059
  90.8790772  19.2334752  38.3360138  84.4259247  28.9370924  39.0437335
  84.4807857  27.9844761  38.9679812  83.6150449  29.0930364  39.5278634
  85.5750441  32.8651048  30.2815618  85.1369871  32.1486906  29.8221256
  86.3160882  33.0927162  29.7200710  82.3651607  27.5547984  36.8027714
  81.5519472  27.8542155  37.2092906  82.8610601  27.1603673  37.5202196
  87.9625819  28.0189809  45.6342608  88.3175206  28.2461282  46.4937074
  88.6097950  28.3508185  45.0119863  93.6923555  31.1408245  36.3391937
  93.5541454  31.3309841  35.4113126  93.3359774  31.9027627  36.7959988
  81.8565682  25.1266340  42.4188949  82.4965061  24.9855099  41.7211912
  81.0243212  24.8400853  42.0427551  93.7192935  33.2084772  41.3503208
  94.1529442  33.1160061  42.1986263  94.4324516  33.1842272  40.7123224
  87.4520830  36.8086866  42.8836309  87.5057852  37.3777802  43.6514025
  86.5835611  36.9788751  42.5190346  78.9408749  28.5711852  34.6083694
  78.0106337  28.5096307  34.8253656  79.0366221  28.0487805  33.8120335
  78.8594298  25.0966665  37.1961936  79.1201115  26.0111998  37.0871096
  79.6811470  24.6291107  37.3458549  80.3319223  26.5104422  44.3660760
  81.0042277  26.3021784  43.7173409  79.5049010  26.3126508  43.9265993
  94.5808485  33.2508472  43.8836094  94.7744375  34.1554283  44.1295369
  94.4809103  32.7915891  44.7174679  86.2344795  23.1366363  46.3826421
  85.5872710  23.8356312  46.2890898  87.0045811  23.5702507  46.7502669
  89.6423593  33.4015215  49.4576974  89.4909100  33.1725767  48.5407058
  89.6328273  34.3585816  49.4708320  86.4108930  30.9747128  44.4423241
  87.3400990  31.1258287  44.2692208  85.9899960  31.0631149  43.5871887
  85.8045413  40.1006889  33.5547315  85.9797169  39.6294932  34.3692938
  85.1178201  40.7272655  33.7828576  80.7346721  29.7847025  45.1263198
  80.5966519  29.0527264  45.7274737  81.6451644  29.6955925  44.8447385
  89.6961668  31.7235429  29.8747676  89.0790839  30.9982257  29.7780729
  89.2278157  32.4844789  29.5314750  83.3629021  29.4966984  44.6146877
  84.0728640  28.8560176  44.5733496  83.3198329  29.7479879  45.5373058
  91.3515800  36.4334338  47.5353456  91.2928346  35.7493558  46.8684039
  91.7535318  37.1753328  47.0834082  82.0757955  26.4832202  46.4342517
  81.5395312  26.0322941  47.0864113  81.4874664  26.6178111  45.6912981
  81.4860214  25.9420854  28.9968980  80.6089681  25.8209654  28.6331227
  81.9617967  25.1506932  28.7447869  91.3533207  34.3973921  45.7667436
  90.4659986  34.0599843  45.8893835  91.9231758  33.6656953  46.0036201
  77.8097076  25.6188210  43.5195511  77.7255265  25.0113879  42.7845921
  76.9879783  26.1097228  43.5205007  87.9820790  24.1041773  38.8865706
  88.4789490  23.3511736  38.5666776  87.2107772  24.1406090  38.3208915
  95.8350548  29.8082139  40.5283998  95.8240424  30.6906854  40.1577931
  94.9667927  29.4553690  40.3338535  87.3433044  38.9562208  44.8886838
  88.0561016  39.5909673  44.8162739  86.8523073  39.0526074  44.0726840
  89.0650571  32.8613461  36.4604130  88.1306850  32.9814923  36.2908834
  89.2427239  31.9585927  36.1964139  84.5655759  26.2459156  38.6137391
  84.1953547  25.6930197  39.3018296  85.0614852  25.6417290  38.0612391
  90.5199353  35.0474601  33.9940316  90.7959197  34.9331196  34.9034190
  89.6503852  34.6492086  33.9552489  90.4239785  21.0711367  41.0345065
  89.5102865  21.3015594  41.2027272  90.8532887  21.1549811  41.8859097
  90.1946244  29.2601259  43.5344959  89.5417694  29.5077166  42.8797412
  90.5726624  28.4465397  43.2007436  87.4895583  38.2229137  34.8988178
  88.0183349  37.7121592  34.2858340  87.7523803  37.9071667  35.7633711
  86.2433817  30.0021070  50.0210996  85.5674454  29.9015199  50.6913371
  87.0661451  29.8460284  50.4846993  79.9621093  23.6563147  44.8590497
  80.0262419  24.5177978  44.4467895  79.8988213  23.0437149  44.1262855
  79.4373365  25.7286280  48.5063531  80.0645404  25.3463357  49.1201055
  78.5801284  25.5100482  48.8719224  89.8367474  36.1349255  50.1117267
  90.3807378  36.7479213  49.6172221  89.2554319  36.6928833  50.6284280
  88.1224987  39.2569973  41.2432294  87.9976126  38.4559713  40.7343240
  88.7804078  39.7516166  40.7546264  79.7433155  25.6118705  40.4209435
  79.0219741  26.2254673  40.2816908  80.5326411  26.1476470  40.3426080
  90.1859895  37.0578993  42.8711844  89.2390231  36.9384344  42.7990171
  90.5342668  36.1701491  42.9538106  82.5459469  22.9473132  46.6950086
  83.0693870  23.1935428  47.4576396  82.3271802  23.7793167  46.2753224
  77.9426750  25.2176806  34.5621211  77.6139456  24.3374185  34.3796317
  78.2966120  25.1624475  35.4497600  87.1906328  36.8531709  39.0716197
  87.0431291  35.9248417  39.2523767  88.0159822  36.8751800  38.5873272
  81.0568573  25.5049776  34.9296689  81.3964645  26.0335697  34.2075297
  81.5040693  25.8430182  35.7055255  90.7940450  37.6760268  40.1581069
  91.7186998  37.4703129  40.0205521  90.6255754  37.4276669  41.0670411
  83.7512014  23.8886827  44.3799757  83.4108834  23.0894640  44.7820437
  83.0451020  24.1888538  43.8076590  84.4028485  20.9736139  42.8327080
  85.2254555  20.4996618  42.7105970  84.6466549  21.7526623  43.3325766
  83.0436720  24.0024398  33.1289982  83.7645082  24.3805651  32.6253698
  82.4202024  24.7213275  33.2324959  87.1867843  24.7069547  34.0648314
  87.4031457  25.5894185  33.7637142  86.7061910  24.3155760  33.3353956
  81.9267064  27.6655260  40.6419058  81.7811645  27.9795563  41.5343340
  81.4492268  28.2840160  40.0889957  83.7863447  24.6557808  40.6899948
  83.7725016  23.7598901  40.3532246  84.5035875  24.6628472  41.3238234
  85.6389578  25.0895148  42.7353075  85.3807356  26.0112219  42.7337406
  85.1074618  24.6925583  43.4253540  90.5835767  38.1945935  35.5143161
  90.7572644  37.6292358  34.7617013  91.0764658  38.9946830  35.3322651
  83.1900343  23.5372188  35.9587518  83.3116254  22.6088834  36.1578406
  82.9002385  23.5510874  35.0465834  86.0591533  21.2227099  39.0954238
  86.0813230  21.2866432  38.1406218  86.4759592  20.3831607  39.2894744
  96.4375158  30.9582358  37.1333461  96.8806304  30.2089683  36.7352584
  95.5601668  30.9492495  36.7507193  91.5710939  37.5112700  32.6140059
  92.2661844  38.1319392  32.8327374  91.9134089  36.6608051  32.8892437
  77.1878748  29.3330501  46.4736876  76.4460484  29.4813136  47.0601507
  76.8671492  29.5938766  45.6103626  93.4702362  34.9612405  34.1427390
  93.9953686  35.2999678  33.4176710  93.3824715  34.0259421  33.9590525
  82.6741423  25.0504186  50.1677451  82.7229578  25.9266308  49.7855220
  83.2163937  24.5081579  49.5949094  93.1596268  35.5945309  49.4478588
  92.3691812  35.5769448  48.9083087  92.9229623  36.1333603  50.2027624
  93.2794143  32.4437775  46.7611316  93.3292148  32.2787783  47.7026839
  93.1708067  31.5765034  46.3709197  90.5697906  28.4268703  48.0770623
  91.4707768  28.2875168  47.7854621  90.6445880  28.5923158  49.0168801
  84.9040711  25.8035558  46.9223809  84.0344020  26.0969124  46.6506398
  85.1400191  26.3876003  47.6431073  94.7812340  34.8634717  47.0053338
  94.4897148  35.2264697  47.8416799  94.1684471  34.1501725  46.8266670
  95.9808022  32.4287597  39.5255908  96.8154914  32.8677401  39.6893469
  96.1167151  31.9526250  38.7064154  93.0299528  29.9867331  45.4733396
  93.5053650  30.1794978  44.6652247  92.1065094  30.0426517  45.2276780
  79.9183035  31.1491499  35.0564474  79.6729077  30.2453829  35.2544684
  80.0878949  31.1508649  34.1143952  87.6079745  22.0215175  44.4389230
  88.1261689  22.7576202  44.1135718  87.2534878  22.3279168  45.2735989
  79.1878682  26.8819856  32.5550636  78.4947927  26.9564211  31.8990672
  78.9430434  26.1180200  33.0772153  87.8592339  18.4415457  39.9590126
  88.1394093  17.7738647  40.5850553  88.6442946  18.6344553  39.4464790
  85.6625807  37.6174451  31.5215153  85.0899775  38.2364639  31.0685625
  86.2358601  38.1673813  32.0555075  91.7301197  26.8633091  43.7061702
  92.6818620  26.9631189  43.7273926  91.5604648  26.0711360  44.2159786
  89.7515577  23.9488675  43.8921102  89.1565509  24.2293687  43.1967591
  89.4665273  24.4382576  44.6637844  88.8823067  37.9011602  32.6523735
  89.8153740  37.8357163  32.8556610  88.7946280  38.7367868  32.1938268
  91.5111084  37.2177472  29.6127683  91.4324715  36.8837335  30.5063440
  92.3320751  37.7099240  29.6119155  94.2089275  30.0839211  42.8204001
  94.1765595  29.1455212  43.0063685  94.8189899  30.1623248  42.0869826
  86.0472606  28.9535264  28.8631205  86.9931711  28.8241472  28.9319623
  85.6686851  28.2149926  29.3400633  94.3583764  26.8750255  42.8662284
  93.8422812  26.0908711  42.6792213  95.2423712  26.5468971  43.0308804
  92.0194491  20.6191270  38.8258097  91.8219312  20.3106358  39.7101429
  92.6294196  21.3452909  38.9556027 100.0265825  31.1455218  41.9610038
 100.7569213  30.8840506  42.5217741  99.4172770  30.4083940  42.0012106
  98.1081122  29.2863081  42.5584489  97.3814286  29.1519046  41.9500981
  97.6928409  29.5939909  43.3641207  85.9311299  33.0053010  50.3231862
  86.8514308  33.1831609  50.5171909  85.8960882  32.0609056  50.1711561
  84.2315523  26.8785241  28.7986090  83.3246979  26.5818353  28.8748804
  84.5091504  26.5815059  27.9320377  85.8477589  21.4222130  34.9530332
  85.0378317  21.0769215  35.3285578  86.5362006  21.1129674  35.5417943
  87.7768137  20.5000177  36.5754628  88.3299176  20.9195630  37.2344651
  88.0138224  19.5735925  36.6177584  83.8001236  26.4887251  52.3557392
  83.6997963  27.4381608  52.2869483  83.5822778  26.1605490  51.4833462
  83.0014308  23.7372176  28.9398070  83.8633472  24.0627074  29.1993887
  83.1864652  22.9503672  28.4271135  91.1546944  22.6100702  36.0833293
  90.5745613  23.2685506  35.7011345  90.8882877  21.7878047  35.6720710
  89.6050511  22.0105760  38.2854613  90.1050289  22.1222294  37.4768932
  90.2486119  21.7066813  38.9255421  83.6632506  29.9184390  51.1722454
  83.1799588  30.7184750  51.3786343  83.7493445  29.9292334  50.2189898
  80.1805226  32.3790040  45.7761685  80.9998115  32.8734119  45.7996523
  80.4542034  31.4622008  45.7479253  89.9371822  24.7700793  35.1389641
  89.0497677  25.0550443  34.9209836  90.3525811  24.6094556  34.2916918
  93.2886358  24.7947314  38.8543980  94.0646748  25.2843766  39.1268597
  92.5634493  25.2205368  39.3115850  95.7258917  25.5074933  39.9117921
  96.3203408  25.2670669  39.2011229  95.7985501  24.7882063  40.5391457
  89.0815036  34.5345467  29.2337661  89.7850886  34.7395470  29.8495316
  88.3577684  35.1022229  29.4986744  89.9112846  30.2855329  35.3539931
  89.8548047  30.7423880  34.5147563  90.4641188  29.5246013  35.1762774
  93.7217652  26.0745060  36.1790051  93.4654586  25.6741696  37.0098258
  93.0970520  26.7888854  36.0540190  98.0329990  28.8141134  38.6861342
  97.4729548  28.8834323  39.4592904  97.4273493  28.6382118  37.9660838
  90.9901733  34.9727996  31.2836121  91.8247337  34.5409195  31.1013596
  90.8286076  34.8010010  32.2113015  90.6447625  31.4760110  32.6492460
  90.5896429  31.3104381  31.7080904  90.0193681  32.1836143  32.8054650
  75.4340140  26.7128174  46.4753882  76.0799004  26.2027128  46.9641108
  75.2257291  27.4496856  47.0497308  87.9593532  33.7809022  51.9746023
  88.8284692  33.9549674  51.6132658  87.4800284  34.6003438  51.8521752
  83.9543751  20.9768219  32.2277779  83.9422421  21.9210059  32.3846049
  84.8467173  20.7938364  31.9337240  87.7695870  17.5710995  36.4823715
  87.0028266  17.0169482  36.6280398  88.1806575  17.6432864  37.3437867
  79.7737631  23.8595791  50.5728897  80.6369093  23.5032596  50.7832221
  79.2003042  23.5209686  51.2604301  99.6186008  45.4897648  41.3791298
 100.2564418  45.3704395  40.6754638  99.5006851  46.4378492  41.4379250
  96.4275714  45.4425076  41.3152822  96.0894226  45.3266140  40.4273357
  97.2965483  45.0416241  41.2953828  92.2862530  47.2960552  37.3049713
  91.7227395  47.2050489  36.5366001  92.1714925  46.4760457  37.7852206
  96.9095497  46.5959927  47.2739028  96.8984138  46.2012726  46.4019532
  97.0716137  45.8626000  47.8672799  89.8326962  48.7911744  40.1433934
  90.6248254  48.4502568  39.7280233  90.0723612  48.9006719  41.0636087
  97.8662089  50.9631520  32.6164178  97.2150069  51.5485600  32.2298192
  98.6606452  51.4937715  32.6759216  91.7917716  48.0520657  33.0151313
  92.5648592  47.5049644  32.8764188  92.1443115  48.9164906  33.2265774
  93.6302759  49.3797039  46.2218212  93.3392625  50.2842670  46.1064878
  94.2659743  49.4213567  46.9362281  94.5558965  46.7573888  42.8119572
  95.1522538  46.5329910  42.0976534  94.6133937  46.0158633  43.4145019
  94.1283994  44.2113323  30.6469762  94.3809515  43.6894844  29.8853225
  93.1908553  44.0479469  30.7496446  99.1727277  43.2149101  38.4544506
  99.9590366  42.7968525  38.1034923  99.4365981  44.1195194  38.6226154
  99.3437354  48.6521952  33.1533163  98.7083187  48.7256578  33.8654067
  99.0134760  49.2415551  32.4752242 104.5735704  43.1524335  39.3577484
 105.3060876  42.5823551  39.5915314 103.8175060  42.7645935  39.7983990
  93.8480283  46.1141429  32.8494137  93.7316541  45.4386332  33.5175222
  93.9582543  45.6273803  32.0326290  96.1911824  45.5751576  36.5540827
  95.8270031  45.0482197  37.2653748  97.0478939  45.1850045  36.3807312
 102.0961124  36.8645909  43.8172093 101.7644449  37.7341320  43.5933308
 101.5006738  36.5482193  44.4966123  95.8317311  40.6041476  31.5502175
  95.9991713  41.4721712  31.9172646  95.6414480  40.7668758  30.6263464
  98.5892644  49.0658455  43.2168006  98.2893367  49.9683494  43.1083813
  98.2443703  48.7990638  44.0689158  92.0405125  45.5172252  39.2504710
  91.1155622  45.3848466  39.4582402  92.2889538  46.2966471  39.7474652
 101.9889788  41.5840995  40.8965443 101.0806665  41.5156403  40.6024204
 101.9377383  42.0612940  41.7247268  95.8106531  43.0599133  32.5348842
  95.6906157  43.5056184  33.3734322  95.1159120  43.4084451  31.9762380
  89.4013936  45.1605525  40.0848499  89.5306317  45.4140004  40.9987911
  88.7211388  45.7533233  39.7653154  93.5713424  55.8302775  36.1838973
  93.4937453  56.7810600  36.2627454  92.9675067  55.4848648  36.8413900
  96.0630653  43.0030640  48.8400340  95.2863987  43.5624561  48.8303205
  96.7021216  43.4887423  49.3615210 103.8551434  39.7857433  42.6743317
 103.2125814  40.0789966  42.0283111 103.3506362  39.6710354  43.4796513
 101.5091598  43.5320606  33.3629176 102.4209454  43.7647993  33.1876874
 101.0001245  44.1157651  32.8004255  94.3177026  45.8116094  48.4018307
  95.0591710  46.3501138  48.1253131  93.6114011  46.4382383  48.5589859
  99.7932365  47.9545234  46.9990469 100.2015721  47.5127645  46.2545101
  99.0709627  47.3797862  47.2524662  96.1463435  42.8917841  44.3724026
  96.9924630  43.3157255  44.5158675  96.0862073  42.2351465  45.0662589
 100.1161180  48.5146425  40.7542758  99.4870042  48.6792139  40.0518825
  99.7286842  48.9288034  41.5253722 103.9950412  49.4500863  38.1087121
 103.3101450  49.8299764  37.5584155 104.0794261  50.0596189  38.8419069
  99.2962881  40.5522209  46.0305199  99.0523812  41.3064270  45.4939475
  99.5722811  40.9307557  46.8652446 101.2501343  47.0960822  44.7082465
 101.4618239  47.7392582  44.0316846 101.2031092  46.2623138  44.2404395
  98.8527572  39.7078642  41.6119037  97.9912051  40.0059896  41.9035775
  98.8790007  39.9249041  40.6800070  95.6689142  48.2520833  38.0192843
  96.1327487  48.5308536  37.2297465  95.4045940  47.3504278  37.8365933
  92.5613223  47.7992315  40.9572606  93.1314580  48.2279583  40.3190090
  93.1521335  47.5174899  41.6556792  94.6058028  44.3743985  34.8282408
  95.3082071  44.8265029  35.2956334  94.2738656  43.7327804  35.4562301
  93.0538389  42.9655742  49.2033617  92.4237050  43.6472023  49.4369014
  92.9474477  42.8538824  48.2586755  88.3483362  42.6327538  40.1299541
  87.5582416  42.8885067  39.6539652  88.8394609  43.4475876  40.2351582
 102.3647171  49.9732777  42.8804822 103.1864615  49.5712965  42.5987504
 102.3609574  49.8701011  43.8320938  90.2998107  42.9972117  37.0883018
  89.5029270  43.1090812  37.6066514  90.0723699  43.3358770  36.2223909
  96.1303775  49.5216821  45.0365533  96.1948207  49.9837228  45.8723704
  95.4214699  48.8914185  45.1647842  86.6321065  42.8858029  42.5614532
  86.8829103  43.7705038  42.8272108  87.1680613  42.7062630  41.7889624
  95.8451792  51.1884928  34.9044513  95.7097467  52.0336464  35.3329361
  96.3861605  51.3904206  34.1410447  92.3319132  37.2676508  51.5658868
  91.9386078  36.7142706  52.2406512  93.1485272  37.5787086  51.9565386
  89.2981190  48.7060366  35.4772438  89.8105710  49.5003616  35.6278003
  89.9503903  48.0086657  35.4106040  91.1076075  51.8226122  37.5595191
  91.2842703  52.7444087  37.3716175  91.9032908  51.5084542  37.9889571
  95.2487093  38.6834387  49.1579125  95.9896806  39.2841540  49.0783587
  95.4805016  37.9412025  48.5997167  90.3928431  43.8690754  47.4357354
  90.2781946  42.9676011  47.7364453  89.5372949  44.1154451  47.0842171
  97.4720269  51.8108495  49.0344855  97.0284123  51.0244873  48.7165760
  98.1337482  51.9987645  48.3688746  92.2307390  53.3404296  43.5605534
  92.7814815  53.2121359  42.7882528  91.3918866  53.6399185  43.2100426
  99.5701507  52.0911294  47.0626256  99.5519982  52.9120176  46.5706525
 100.4921427  51.9665370  47.2876397  96.0274561  49.6055424  47.9049765
  96.5602898  48.8443712  47.6749073  95.4988642  49.3129076  48.6473919
  99.1944256  34.7115490  43.4343406  98.8508525  35.6017132  43.3582517
  99.5623219  34.5217148  42.5712991  87.2630107  47.0349020  36.2532009
  88.1005329  47.4446029  36.0365716  87.4408374  46.0948463  36.2232202
  99.1594539  44.7024101  31.9415842  98.6441162  45.4728706  32.1804229
  98.8871847  44.0289237  32.5648903  96.7441650  39.5473802  37.0001080
  95.8883246  39.1580652  36.8206719  97.1568602  39.6265763  36.1400865
  98.2740796  37.0820145  41.3992640  97.7705592  37.0450280  40.5860445
  98.5671403  37.9912888  41.4589296  94.5183682  37.1658875  40.4058821
  95.3836679  36.9701683  40.0464711  94.5861191  36.9369227  41.3328178
 104.1328813  47.4556456  33.8769015 103.3558256  47.1167615  33.4324177
 104.8120294  47.4609079  33.2023980  98.9480842  42.5751193  33.7675623
  98.6430977  42.8897342  34.6185766  99.9011284  42.6532613  33.8102956
  97.3927274  48.7341416  35.4168577  96.8648635  47.9994176  35.1041814
  96.8914776  49.5116093  35.1708545 102.3720120  46.9290437  40.5335623
 101.7143794  47.6189698  40.6215752 103.1760519  47.3186869  40.8769609
  92.1246001  39.3961083  37.7775188  92.6989753  39.1736264  37.0448381
  92.7116984  39.4649777  38.5303790 101.1825579  45.2834810  38.5839565
 101.6957460  45.9164801  39.0861274 101.8326802  44.6836005  38.2182925
  92.4515588  41.4265544  31.7971073  91.6152901  41.7640230  32.1180348
  92.3120358  41.2914524  30.8598210  94.4268669  36.2702332  36.5050258
  93.7733081  35.9551349  35.8806872  94.3849143  35.6478072  37.2310081
  95.5379874  46.5521627  28.4203550  94.6306936  46.3210880  28.6194699
  96.0350906  45.7559246  28.6077531  98.4447953  55.2619134  31.3400236
  97.7709652  55.5650831  31.9485194  98.8313775  56.0648214  30.9905693
  97.6606409  42.7584265  40.8297905  96.7428971  42.9799212  40.6719593
  98.0766553  42.8330576  39.9709613  98.4441457  44.1575681  35.9600586
  99.1913276  44.6697078  35.6507708  98.7133047  43.8359734  36.8204979
  96.7168107  46.6534222  32.9427540  95.8079327  46.3693254  33.0400010
  96.7463191  47.0733300  32.0830847 101.9487375  50.2640811  36.7118707
 101.4949702  49.4231721  36.7683898 101.3181341  50.9002209  37.0493488
 100.8920294  41.1932797  37.9419375 100.1543051  40.6810183  38.2729617
 101.1447068  40.7533179  37.1302652 100.3920314  52.1017308  37.6468526
 100.6843288  52.6622365  36.9280891 100.9018935  52.3945869  38.4021685
 100.9931922  33.9709049  38.5361144 101.2990798  33.1106413  38.2487059
 101.7184526  34.5626669  38.3360138  87.2856278  44.3739736  36.9242742
  87.0880678  43.7809096  36.1993809  86.7302942  44.0691946  37.6418681
  95.2653001  44.2662842  39.0437335  95.3201611  43.3136679  38.9679812
  94.4544203  44.4222281  39.5278634  93.2045361  42.8839902  36.8027714
  92.3913227  43.1834072  37.2092906  93.7004356  42.4895591  37.5202196
  95.3553939  52.8797659  38.7361979  95.3130118  53.1058505  37.8070511
  96.2716638  52.6461033  38.8847780  98.8019573  43.3481726  45.6342608
  99.1568961  43.5753200  46.4937074  99.4491704  43.6800103  45.0119863
 104.5317310  46.4700162  36.3391937 104.3935209  46.6601758  35.4113126
 104.1753529  47.2319545  36.7959988  92.6959436  40.4558257  42.4188949
  93.3358815  40.3147017  41.7211912  91.8636967  40.1692771  42.0427551
 104.5586690  48.5376689  41.3503208 104.9923196  48.4451978  42.1986263
 105.2718270  48.5134190  40.7123224  93.4719740  49.7560688  38.5323941
  94.2660338  49.2611008  38.3306516  92.7611432  49.2278551  38.1691647
  98.2914584  52.1378783  42.8836309  98.3451607  52.7069720  43.6514025
  97.4229366  52.3080668  42.5190346  89.7802503  43.9003770  34.6083694
  88.8500092  43.8388225  34.8253656  89.8759975  43.3779722  33.8120335
  89.6988052  40.4258582  37.1961936  89.9594870  41.3403916  37.0871096
  90.5205225  39.9583025  37.3458549  91.1712978  41.8396340  44.3660760
  91.8436031  41.6313702  43.7173409  90.3442764  41.6418426  43.9265993
 105.4202239  48.5800390  43.8836094 105.6138129  49.4846200  44.1295369
 105.3202857  48.1207809  44.7174679  97.0738550  38.4658281  46.3826421
  96.4266465  39.1648230  46.2890898  97.8439565  38.8994424  46.7502669
 100.4817348  48.7307133  49.4576974 100.3302854  48.5017684  48.5407058
 100.4722027  49.6877734  49.4708320  97.2502684  46.3039045  44.4423241
  98.1794744  46.4550205  44.2692208  96.8293714  46.3923066  43.5871887
  96.0491016  50.3289710  42.2121779  95.9102102  49.9608494  43.0847717
  95.2605612  50.8437349  42.0405736  96.6439168  55.4298806  33.5547315
  96.8190924  54.9586849  34.3692938  95.9571956  56.0564572  33.7828576
  97.5996231  49.7071313  39.6010616  97.2646064  49.6672082  40.4968266
  97.1000177  49.0416028  39.1281027  91.5740475  45.1138943  45.1263198
  91.4360273  44.3819181  45.7274737  92.4845399  45.0247843  44.8447385
 100.5355423  47.0527347  29.8747676  99.9184593  46.3274175  29.7780729
 100.0671911  47.8136707  29.5314750  94.2022776  44.8258902  44.6146877
  94.9122394  44.1852094  44.5733496  94.1592084  45.0771797  45.5373058
 102.1909554  51.7626255  47.5353456 102.1322101  51.0785475  46.8684039
 102.5929073  52.5045245  47.0834082  92.9151710  41.8124120  46.4342517
  92.3789067  41.3614858  47.0864113  92.3268418  41.9470029  45.6912981
  91.2100253  58.5788169  40.3287175  91.4496851  59.2106693  41.0066194
  90.3669450  58.2276209  40.6152535  92.3253969  41.2712771  28.9968980
  91.4483435  41.1501572  28.6331227  92.8011722  40.4798849  28.7447869
 102.1926962  49.7265839  45.7667436 101.3053740  49.3891761  45.8893835
 102.7625513  48.9948870  46.0036201  88.6490831  40.9480127  43.5195511
  88.5649020  40.3405797  42.7845921  87.8273537  41.4389146  43.5205007
  95.7228115  54.3867292  42.7328679  95.6498287  55.1922263  43.2447984
  95.2805508  54.5859257  41.9076701  95.5117895  53.6239062  36.2431501
  94.7285417  54.1660742  36.3369725  96.2110640  54.1413041  36.6425742
  98.8214545  39.4333691  38.8865706  99.3183244  38.6803653  38.5666776
  98.0501526  39.4698008  38.3208915  98.1826799  54.2854126  44.8886838
  98.8954771  54.9201590  44.8162739  97.6916827  54.3817992  44.0726840
  99.9044326  48.1905378  36.4604130  98.9700604  48.3106841  36.2908834
 100.0820994  47.2877845  36.1964139  95.4049514  41.5751074  38.6137391
  95.0347301  41.0222114  39.3018296  95.9008606  40.9709207  38.0612391
 103.2916877  44.0322697  36.9954164 103.7577329  44.8650689  36.9214466
 103.7424377  43.5667679  37.6999422  93.2338712  52.0348569  45.7092409
  93.9348172  52.6685052  45.8621803  92.7633827  52.3763301  44.9488048
 101.3593108  50.3766519  33.9940316 101.6352952  50.2623113  34.9034190
 100.4897607  49.9784004  33.9552489 101.2633540  36.4003284  41.0345065
 100.3496619  36.6307511  41.2027272 101.6926641  36.4841729  41.8859097
 101.0339998  44.5893176  43.5344959 100.3811448  44.8369084  42.8797412
 101.4120378  43.7757315  43.2007436  97.9947172  54.6252870  37.6373129
  98.1769567  53.8074526  38.1000882  98.8180158  54.8420562  37.1998019
  98.3289337  53.5521055  34.8988178  98.8577104  53.0413509  34.2858340
  98.5917557  53.2363585  35.7633711  97.0827571  45.3312988  50.0210996
  96.4068208  45.2307117  50.6913371  97.9055205  45.1752201  50.4846993
  88.8306430  51.5684924  42.6423511  89.4159867  50.8228612  42.7751416
  88.6331269  51.8788881  43.5260175  91.6845085  54.6036171  37.6585954
  91.0155461  55.0882299  37.1749994  91.5457955  54.8505392  38.5729332
  95.8250354  56.6379915  44.2568612  96.3768662  56.8011536  45.0217697
  96.1656547  57.2284353  43.5848637  90.8014847  38.9855065  44.8590497
  90.8656174  39.8469896  44.4467895  90.7381967  38.3729066  44.1262855
  90.2767120  41.0578197  48.5063531  90.9039159  40.6755275  49.1201055
  89.4195039  40.8392399  48.8719224 100.6761228  51.4641172  50.1117267
 101.2201132  52.0771131  49.6172221 100.0948073  52.0220751  50.6284280
  87.0532663  42.8654626  34.4381886  87.3486104  41.9565305  34.3848940
  86.1520698  42.8442366  34.1162888  98.9618741  54.5861890  41.2432294
  98.8369881  53.7851630  40.7343240  99.6197832  55.0808084  40.7546264
  90.5826910  40.9410623  40.4209435  89.8613495  41.5546591  40.2816908
  91.3720165  41.4768388  40.3426080 101.0253650  52.3870911  42.8711844
 100.0783985  52.2676262  42.7990171 101.3736423  51.4993409  42.9538106
  93.3853223  38.2765049  46.6950086  93.9087625  38.5227346  47.4576396
  93.1665556  39.1085084  46.2753224  88.7820504  40.5468724  34.5621211
  88.4533210  39.6666103  34.3796317  89.1359875  40.4916393  35.4497600
  98.0300083  52.1823627  39.0716197  97.8825045  51.2540334  39.2523767
  98.8553576  52.2043717  38.5873272  91.8962327  40.8341694  34.9296689
  92.2358400  41.3627615  34.2075297  92.3434448  41.1722100  35.7055255
 101.6334205  53.0052186  40.1581069 102.5580752  52.7995047  40.0205521
 101.4649508  52.7568587  41.0670411  94.5905768  39.2178745  44.3799757
  94.2502588  38.4186558  44.7820437  93.8844774  39.5180455  43.8076590
  95.2422240  36.3028057  42.8327080  96.0648309  35.8288535  42.7105970
  95.4860303  37.0818541  43.3325766  93.8830474  39.3316315  33.1289982
  94.6038837  39.7097568  32.6253698  93.2595779  40.0505192  33.2324959
  98.0261597  40.0361464  34.0648314  98.2425212  40.9186102  33.7637142
  97.5455664  39.6447678  33.3353956  92.7660819  42.9947178  40.6419058
  92.6205399  43.3087481  41.5343340  92.2886022  43.6132078  40.0889957
  94.6257202  39.9849726  40.6899948  94.6118770  39.0890819  40.3532246
  95.3429630  39.9920389  41.3238234  96.4783332  40.4187066  42.7353075
  96.2201110  41.3404136  42.7337406  95.9468373  40.0217500  43.4253540
 101.4229521  53.5237853  35.5143161 101.5966399  52.9584275  34.7617013
 101.9158412  54.3238748  35.3322651  87.2406481  45.5352522  43.5806720
  86.6959949  46.3112330  43.7126994  88.1185831  45.8823327  43.4225841
  94.0294097  38.8664106  35.9587518  94.1510009  37.9380752  36.1578406
  93.7396140  38.8802792  35.0465834  96.8985288  36.5519016  39.0954238
  96.9206985  36.6158349  38.1406218  97.3153347  35.7123525  39.2894744
 102.4104694  52.8404617  32.6140059 103.1055598  53.4611310  32.8327374
 102.7527844  51.9899969  32.8892437  88.0272503  44.6622418  46.4736876
  87.2854239  44.8105054  47.0601507  87.7065247  44.9230684  45.6103626
 104.3096117  50.2904323  34.1427390 104.8347441  50.6291596  33.4176710
 104.2218469  49.3551338  33.9590525  95.9716165  54.2038397  46.2717267
  96.2803292  53.9587543  47.1439966  96.7691647  54.4085035  45.7836137
  95.9936777  56.3576306  38.5022643  95.5541768  55.8652685  39.1955500
  96.7444894  55.8149274  38.2614718  88.4729116  52.5487847  38.5047271
  89.2987136  52.2491619  38.1245915  88.1223168  51.7795469  38.9537060
  93.4410650  51.9014315  40.5744945  92.8190659  51.2385020  40.2747173
  94.1115516  51.9275447  39.8918593  86.6737721  50.4674174  39.4636205
  85.8369630  50.0396348  39.2820206  86.6461367  50.6606617  40.4006996
  93.5135177  40.3796103  50.1677451  93.5623332  41.2558226  49.7855220
  94.0557691  39.8373496  49.5949094 103.9990023  50.9237227  49.4478588
 103.2085566  50.9061365  48.9083087 103.7623377  51.4625520  50.2027624
 104.1187898  47.7729693  46.7611316 104.1685903  47.6079700  47.7026839
 104.0101821  46.9056952  46.3709197  93.0024156  50.4518239  34.0503405
  93.1512277  51.1353703  33.3970078  93.8090600  50.4323329  34.5652861
 101.4091660  43.7560621  48.0770623 102.3101523  43.6167086  47.7854621
 101.4839635  43.9215076  49.0168801  95.7434465  41.1327476  46.9223809
  94.8737775  41.4261042  46.6506398  95.9793946  41.7167921  47.6431073
 105.6206095  50.1926634  47.0053338 105.3290903  50.5556615  47.8416799
 105.0078226  49.4793643  46.8266670 103.8693283  45.3159249  45.4733396
 104.3447404  45.5086895  44.6652247 102.9458848  45.3718435  45.2276780
  90.7576789  46.4783416  35.0564474  90.5122831  45.5745746  35.2544684
  90.9272704  46.4800567  34.1143952  98.4473499  37.3507093  44.4389230
  98.9655443  38.0868120  44.1135718  98.0928632  37.6571086  45.2735989
  90.0272437  42.2111774  32.5550636  89.3341682  42.2856129  31.8990672
  89.7824189  41.4472117  33.0772153  98.6986093  33.7707375  39.9590126
  98.9787847  33.1030564  40.5850553  99.4836700  33.9636471  39.4464790
  96.5019562  52.9466369  31.5215153  95.9293529  53.5656556  31.0685625
  97.0752356  53.4965731  32.0555075 102.5694952  42.1925009  43.7061702
 103.5212375  42.2923107  43.7273926 102.3998402  41.4003278  44.2159786
 100.5909331  39.2780592  43.8921102  99.9959263  39.5585605  43.1967591
 100.3059028  39.7674493  44.6637844  99.7216822  53.2303519  32.6523735
 100.6547495  53.1649081  32.8556610  99.6340035  54.0659786  32.1938268
 102.3504838  52.5469390  29.6127683 102.2718470  52.2129253  30.5063440
 103.1714505  53.0391157  29.6119155 105.0483030  45.4131129  42.8204001
 105.0159350  44.4747130  43.0063685 105.6583653  45.4915166  42.0869826
  96.8866360  44.2827182  28.8631205  97.8325465  44.1533390  28.9319623
  96.5080605  43.5441844  29.3400633 105.1977518  42.2042172  42.8662284
 104.6816567  41.4200629  42.6792213 106.0817467  41.8760889  43.0308804
 102.8588245  35.9483188  38.8258097 102.6613066  35.6398276  39.7101429
 103.4687951  36.6744827  38.9556027  96.7705053  48.3344928  50.3231862
  97.6908062  48.5123527  50.5171909  96.7354636  47.3900973  50.1711561
  95.0709278  42.2077158  28.7986090  94.1640733  41.9110271  28.8748804
  95.3485259  41.9106976  27.9320377  89.7667126  46.2445963  42.9654643
  89.9853135  47.1763070  42.9842677  90.1792899  45.8853937  43.7509447
  96.6871343  36.7514048  34.9530332  95.8772072  36.4061133  35.3285578
  97.3755760  36.4421592  35.5417943  98.6161892  35.8292095  36.5754628
  99.1692930  36.2487548  37.2344651  98.8531978  34.9027843  36.6177584
  94.6394991  41.8179168  52.3557392  94.5391718  42.7673525  52.2869483
  94.4216533  41.4897407  51.4833462  93.8408062  39.0664093  28.9398070
  94.7027226  39.3918992  29.1993887  94.0258406  38.2795589  28.4271135
  85.8575478  47.1486433  41.2178258  85.1638949  46.7340386  40.7048213
  86.6048469  47.1906970  40.6211677 101.9940699  37.9392620  36.0833293
 101.4139368  38.5977424  35.7011345 101.7276631  37.1169964  35.6720710
 100.4444265  37.3397678  38.2854613 100.9444043  37.4514212  37.4768932
 101.0879873  37.0358730  38.9255421  94.5026261  45.2476307  51.1722454
  94.0193343  46.0476667  51.3786343  94.5887200  45.2584252  50.2189898
  87.7712221  47.0804687  39.0944273  87.7482909  47.1792374  38.1426156
  88.0812857  47.9269838  39.4161439  90.4299598  49.1380842  43.2090888
  91.3842852  49.1064784  43.1420819  90.2312122  48.6771466  44.0241114
  91.0198981  47.7081958  45.7761685  91.8391870  48.2026037  45.7996523
  91.2935788  46.7913926  45.7479253 100.7765577  40.0992710  35.1389641
  99.8891432  40.3842361  34.9209836 101.1919566  39.9386474  34.2916918
 104.1280113  40.1239231  38.8543980 104.9040503  40.6135684  39.1268597
 103.4028247  40.5497285  39.3115850  88.7849827  54.6800461  40.2261086
  88.6504295  53.9200862  39.6599084  88.3681889  55.4041361  39.7589874
  99.9208790  49.8637385  29.2337661 100.6244640  50.0687387  29.8495316
  99.1971439  50.4314147  29.4986744 100.7506600  45.6147246  35.3539931
 100.6941802  46.0715798  34.5147563 101.3034943  44.8537931  35.1762774
 104.5611406  41.4036978  36.1790051 104.3048341  41.0033614  37.0098258
 103.9364274  42.1180772  36.0540190  91.9418953  55.5769778  40.4379528
  91.8251337  56.5215211  40.3358218  91.1211399  55.2743340  40.8265327
 101.8295488  50.3019914  31.2836121 102.6641092  49.8701113  31.1013596
 101.6679831  50.1301928  32.2113015 101.4841380  46.8052027  32.6492460
 101.4290184  46.6396299  31.7080904 100.8587435  47.5128060  32.8054650
  98.7987287  49.1100939  51.9746023  99.6678447  49.2841592  51.6132658
  98.3194038  49.9295356  51.8521752  94.7937505  36.3060136  32.2277779
  94.7816175  37.2501976  32.3846049  95.6860927  36.1230282  31.9337240
  92.9673467  56.2298040  43.6535457  93.8700714  56.2621651  43.9701952
  92.7410837  55.2998491  43.6681792  94.7227069  54.9829027  40.3145535
  93.7722700  54.9830888  40.2009908  95.0259555  54.2361761  39.7981570
  98.6089625  32.9002913  36.4823715  97.8422021  32.3461400  36.6280398
  99.0200330  32.9724782  37.3437867  90.6131386  39.1887709  50.5728897
  91.4762847  38.8324514  50.7832221  90.0396796  38.8501604  51.2604301
 103.1256285  62.6252470  37.3049713 102.5621150  62.5342407  36.5366001
 103.0108680  61.8052374  37.7852206 100.6720717  64.1203661  40.1433934
 101.4642009  63.7794486  39.7280233 100.9117367  64.2298636  41.0636087
 102.6311471  63.3812575  33.0151313 103.4042347  62.8341562  32.8764188
 102.9836869  64.2456824  33.2265774 104.4696513  64.7088957  46.2218212
 104.1786379  65.6134588  46.1064878 105.1053497  64.7505484  46.9362281
 105.3952720  62.0865805  42.8119572 105.9916292  61.8621828  42.0976534
 105.4527692  61.3450551  43.4145019 104.9677748  59.5405241  30.6469762
 105.2203269  59.0186762  29.8853225 104.0302307  59.3771386  30.7496446
 104.6874037  61.4433347  32.8494137 104.5710295  60.7678250  33.5175222
 104.7976297  60.9565721  32.0326290 102.8798880  60.8464169  39.2504710
 101.9549376  60.7140383  39.4582402 103.1283293  61.6258388  39.7474652
 100.2407691  60.4897443  40.0848499 100.3700072  60.7431922  40.9987911
  99.5605142  61.0825151  39.7653154 104.4107178  71.1594693  36.1838973
 104.3331208  72.1102518  36.2627454 103.8068822  70.8140565  36.8413900
 105.1570780  61.1408012  48.4018307 105.8985464  61.6793055  48.1253131
 104.4507766  61.7674300  48.5589859 103.4006977  63.1284232  40.9572606
 103.9708334  63.5571501  40.3190090 103.9915089  62.8466817  41.6556792
 103.8932144  58.2947660  49.2033617 103.2630804  58.9763941  49.4369014
 103.7868232  58.1830741  48.2586755  99.1877116  57.9619456  40.1299541
  98.3976170  58.2176984  39.6539652  99.6788364  58.7767794  40.2351582
 101.1391862  58.3264035  37.0883018 100.3423025  58.4382729  37.6066514
 100.9117454  58.6650687  36.2223909  97.4714819  58.2149946  42.5614532
  97.7222858  59.0996956  42.8272108  98.0074368  58.0354548  41.7889624
 103.1712887  52.5968426  51.5658868 102.7779832  52.0434624  52.2406512
 103.9879027  52.9079004  51.9565386 100.1374944  64.0352284  35.4772438
 100.6499465  64.8295534  35.6278003 100.7897657  63.3378574  35.4106040
 101.9469829  67.1518040  37.5595191 102.1236457  68.0736005  37.3716175
 102.7426663  66.8376459  37.9889571 101.2322186  59.1982672  47.4357354
 101.1175701  58.2967929  47.7364453 100.3766703  59.4446369  47.0842171
 103.0701144  68.6696214  43.5605534 103.6208570  68.5413277  42.7882528
 102.2312620  68.9691103  43.2100426  98.1023861  62.3640938  36.2532009
  98.9399083  62.7737946  36.0365716  98.2802129  61.4240380  36.2232202
 102.9639756  54.7253000  37.7775188 103.5383508  54.5028182  37.0448381
 103.5510738  54.7941695  38.5303790 103.2909343  56.7557461  31.7971073
 102.4546655  57.0932148  32.1180348 103.1514113  56.6206441  30.8598210
 105.2662424  51.5994249  36.5050258 104.6126836  51.2843266  35.8806872
 105.2242898  50.9769990  37.2310081  98.1250032  59.7031653  36.9242742
  97.9274432  59.1101014  36.1993809  97.5696696  59.3983864  37.6418681
 104.0439116  58.2131820  36.8027714 103.2306981  58.5125990  37.2092906
 104.5398110  57.8187508  37.5202196 103.5353191  55.7850175  42.4188949
 104.1752570  55.6438934  41.7211912 102.7030721  55.4984688  42.0427551
 104.3113494  65.0852606  38.5323941 105.1054093  64.5902926  38.3306516
 103.6005187  64.5570469  38.1691647 100.6196258  59.2295687  34.6083694
  99.6893846  59.1680143  34.8253656 100.7153730  58.7071640  33.8120335
 100.5381807  55.7550500  37.1961936 100.7988624  56.6695833  37.0871096
 101.3598979  55.2874943  37.3458549 102.0106732  57.1688257  44.3660760
 102.6829786  56.9605619  43.7173409 101.1836519  56.9710343  43.9265993
 102.4134230  60.4430860  45.1263198 102.2754028  59.7111099  45.7274737
 103.3239153  60.3539760  44.8447385 105.0416530  60.1550820  44.6146877
 105.7516149  59.5144012  44.5733496 104.9985838  60.4063714  45.5373058
 103.7545464  57.1416037  46.4342517 103.2182821  56.6906776  47.0864113
 103.1662173  57.2761946  45.6912981 102.0494008  73.9080087  40.3287175
 102.2890606  74.5398611  41.0066194 101.2063204  73.5568127  40.6152535
 103.1647723  56.6004689  28.9968980 102.2877189  56.4793490  28.6331227
 103.6405476  55.8090767  28.7447869  94.6849863  61.3881849  39.0910487
  95.3720903  61.0743579  38.5031503  94.5297992  62.2923213  38.8177739
  99.4884585  56.2772045  43.5195511  99.4042774  55.6697715  42.7845921
  98.6667292  56.7681063  43.5205007 104.0732467  67.3640487  45.7092409
 104.7741926  67.9976970  45.8621803 103.6027582  67.7055218  44.9488048
  99.6700185  66.8976842  42.6423511 100.2553622  66.1520530  42.7751416
  99.4725023  67.2080798  43.5260175 102.5238840  69.9328089  37.6585954
 101.8549215  70.4174217  37.1749994 102.3851710  70.1797310  38.5729332
  94.2617839  59.4682442  41.3627955  94.3001939  58.9346033  42.1565073
  93.7558132  58.9417647  40.7438932 101.6408602  54.3146982  44.8590497
 101.7049928  55.1761813  44.4467895 101.5775722  53.7020984  44.1262855
 101.1160874  56.3870115  48.5063531 101.7432913  56.0047192  49.1201055
 100.2588793  56.1684317  48.8719224  97.8926417  58.1946544  34.4381886
  98.1879858  57.2857223  34.3848940  96.9914453  58.1734284  34.1162888
 101.4220664  56.2702541  40.4209435 100.7007250  56.8838508  40.2816908
 102.2113920  56.8060305  40.3426080 104.2246978  53.6056967  46.6950086
 104.7481379  53.8519264  47.4576396 104.0059311  54.4377002  46.2753224
  99.6214259  55.8760642  34.5621211  99.2926965  54.9958021  34.3796317
  99.9753629  55.8208310  35.4497600 102.7356082  56.1633612  34.9296689
 103.0752154  56.6919533  34.2075297 103.1828202  56.5014018  35.7055255
 105.4299523  54.5470662  44.3799757 105.0896343  53.7478475  44.7820437
 104.7238529  54.8472373  43.8076590 104.7224229  54.6608233  33.1289982
 105.4432591  55.0389486  32.6253698 104.0989533  55.3797110  33.2324959
 103.6054573  58.3239095  40.6419058 103.4599154  58.6379398  41.5343340
 103.1279777  58.9423996  40.0889957  98.0800235  60.8644440  43.5806720
  97.5353703  61.6404248  43.7126994  98.9579585  61.2115244  43.4225841
 104.8687852  54.1956024  35.9587518 104.9903763  53.2672670  36.1578406
 104.5789894  54.2094710  35.0465834  98.8666257  59.9914336  46.4736876
  98.1247993  60.1396971  47.0601507  98.5459001  60.2522602  45.6103626
  99.3122871  67.8779765  38.5047271 100.1380891  67.5783537  38.1245915
  98.9616923  67.1087387  38.9537060 104.2804404  67.2306233  40.5744945
 103.6584413  66.5676938  40.2747173 104.9509271  67.2567365  39.8918593
  97.5131476  65.7966091  39.4636205  96.6763384  65.3688266  39.2820206
  97.4855121  65.9898535  40.4006996 104.3528932  55.7088021  50.1677451
 104.4017087  56.5850144  49.7855220 104.8951446  55.1665414  49.5949094
 103.8417911  65.7810156  34.0503405 103.9906031  66.4645621  33.3970078
 104.6484354  65.7615246  34.5652861 101.5970544  61.8075334  35.0564474
 101.3516586  60.9037664  35.2544684 101.7666458  61.8092484  34.1143952
 100.8666191  57.5403692  32.5550636 100.1735436  57.6148046  31.8990672
 100.6217943  56.7764035  33.0772153  96.8280972  58.8575439  39.2485137
  96.5083757  58.0040747  38.9559511  96.2814401  59.0724017  40.0043104
 100.6060880  61.5737880  42.9654643 100.8246890  62.5054988  42.9842677
 101.0186654  61.2145855  43.7509447 105.4788745  57.1471086  52.3557392
 105.3785472  58.0965443  52.2869483 105.2610287  56.8189325  51.4833462
 104.6801817  54.3956011  28.9398070 105.5420981  54.7210909  29.1993887
 104.8652161  53.6087507  28.4271135  96.6969232  62.4778351  41.2178258
  96.0032704  62.0632304  40.7048213  97.4442223  62.5198887  40.6211677
 105.3420015  60.5768225  51.1722454 104.8587097  61.3768585  51.3786343
 105.4280954  60.5876170  50.2189898  98.6105975  62.4096605  39.0944273
  98.5876663  62.5084292  38.1426156  98.9206612  63.2561755  39.4161439
 101.2693353  64.4672760  43.2090888 102.2236606  64.4356702  43.1420819
 101.0705876  64.0063383  44.0241114 101.8592735  63.0373876  45.7761685
 102.6785624  63.5317954  45.7996523 102.1329543  62.1205844  45.7479253
  99.6243582  70.0092379  40.2261086  99.4898050  69.2492780  39.6599084
  99.2075644  70.7333279  39.7589874 102.7812708  70.9061696  40.4379528
 102.6645092  71.8507129  40.3358218 101.9605154  70.6035258  40.8265327
  97.1127649  57.3712010  46.4753882  97.7586513  56.8610963  46.9641108
  96.9044800  58.1080691  47.0497308 103.8067222  71.5589958  43.6535457
 104.7094468  71.5913568  43.9701952 103.5804592  70.6290409  43.6681792
 105.5620824  70.3120945  40.3145535 104.6116455  70.3122806  40.2009908
 105.8653310  69.5653679  39.7981570 101.4525140  54.5179627  50.5728897
 102.3156602  54.1616431  50.7832221 100.8790551  54.1793521  51.2604301
 105.1011594  74.7974360  41.3627955 105.1395693  74.2637950  42.1565073
 104.5951887  74.2709565  40.7438932  69.5312746   4.9266456  27.0532482
  69.7709344   5.5584980  27.7311500  68.6881942   4.5754496  27.3397841
  81.4468777   8.9730757  24.0295020  80.8833642   8.8820694  23.2611308
  81.3321172   8.1530661  24.5097512  78.9933209  10.4681949  26.8679240
  79.7854501  10.1272773  26.4525540  79.2329859  10.5776924  27.7881394
  87.0268336  12.6401725  19.3409485  86.3756315  13.2255805  18.9543499
  87.8212698  13.1707920  19.4004522  80.9523963   9.7290862  19.7396619
  81.7254839   9.1819849  19.6009495  81.3049362  10.5935111  19.9511081
  82.7909005  11.0567244  32.9463518  82.4998871  11.9612875  32.8310185
  83.4265990  11.0983772  33.6607588  87.7498890  10.7428660  29.9413312
  87.4499614  11.6453698  29.8329119  87.4049950  10.4760843  30.7934465
  81.2011372   7.1942456  25.9750017  80.2761868   7.0618671  26.1827708
  81.4495785   7.9736676  26.4719959  78.5620183   6.8375730  26.8093806
  78.6912564   7.0910209  27.7233217  77.8817634   7.4303438  26.4898461
  82.7319670  17.5072980  22.9084280  82.6543700  18.4580805  22.9872760
  82.1281314  17.1618852  23.5659206  89.2767427  10.1916630  27.4788064
  88.6476289  10.3562344  26.7764132  88.8893089  10.6058239  28.2499028
  84.8295389   9.9291038  24.7438149  85.2933734  10.2078741  23.9542772
  84.5652187   9.0274483  24.5611240  81.7219470   9.4762519  27.6817913
  82.2920827   9.9049788  27.0435397  82.3127581   9.1945104  28.3802098
  91.5253418  11.6502982  29.6050129  92.3470862  11.2483169  29.3232810
  91.5215821  11.5471216  30.5566245  85.2910022  11.1987025  31.7610839
  85.3554454  11.6607433  32.5969011  84.5820945  10.5684390  31.8893149
  85.0058039  12.8655133  21.6289820  84.8703714  13.7106669  22.0574667
  85.5467852  13.0674411  20.8655753  78.4587437  10.3830571  22.2017745
  78.9711957  11.1773821  22.3523309  79.1110149   9.6856861  22.1351346
  80.2682321  13.4996327  24.2840498  80.4448950  14.4214292  24.0961482
  81.0639155  13.1854746  24.7134878  86.6326516  13.4878699  35.7590162
  86.1890370  12.7015078  35.4411066  87.2943729  13.6757850  35.0934052
  81.3913637  15.0174501  30.2850840  81.9421062  14.8891564  29.5127834
  80.5525113  15.3169390  29.9345733  88.7307754  13.7681499  33.7871563
  88.7126229  14.5890380  33.2951832  89.6527674  13.6435575  34.0121704
  85.1880808  11.2825629  34.6295071  85.7209145  10.5213917  34.3994379
  84.6594889  10.9899281  35.3719226  76.4236353   8.7119225  22.9777315
  77.2611575   9.1216234  22.7611023  76.6014621   7.7718667  22.9477509
  86.5533521  10.4111621  22.1413883  86.0254882   9.6764381  21.8287121
  86.0521023  11.1886298  21.8953852  87.6054200  16.9389339  18.0645543
  86.9315898  17.2421036  18.6730500  87.9920022  17.7418419  17.7151000
  91.1093622  11.9411016  23.4364014  90.6555949  11.1001926  23.4929205
  90.4787588  12.5772414  23.7738794  89.5526561  13.7787513  24.3713832
  89.8449535  14.3392570  23.6526198  90.0625181  14.0716074  25.1266991
  76.4462524   6.0509941  23.6488049  76.2486924   5.4579301  22.9239115
  75.8909188   5.7462151  24.3663987  84.5160186  14.5567864  25.4607285
  84.4736365  14.7828710  24.5315817  85.4322885  14.3231238  25.6093087
  82.6325987  11.4330893  25.2569248  83.4266585  10.9381213  25.0551823
  81.9217679  10.9048756  24.8936954  87.4520831  13.8148988  29.6081616
  87.5057853  14.3839925  30.3759332  86.5835613  13.9850873  29.2435653
  89.6423595  10.4077338  36.1822281  89.4909101  10.1787889  35.2652365
  89.6328274  11.3647939  36.1953626  85.2097263  12.0059915  28.9367085
  85.0708348  11.6378699  29.8093023  84.4211859  12.5207554  28.7651043
  85.8045415  17.1069011  20.2792622  85.9797170  16.6357054  21.0938244
  85.1178203  17.7334777  20.5073882  86.7602478  11.3841517  26.3255923
  86.4252310  11.3442287  27.2213573  86.2606424  10.7186233  25.8526333
  91.3515801  13.4396460  34.2598763  91.2928347  12.7555680  33.5929346
  91.7535320  14.1815450  33.8079389  80.3706500  20.2558374  27.0532482
  80.6103098  20.8876898  27.7311500  79.5275696  19.9046414  27.3397841
  73.0062356   7.7360136  25.8155794  73.6933395   7.4221866  25.2276809
  72.8510484   8.6401500  25.5423045  84.8834362  16.0637496  29.4573986
  84.8104533  16.8692468  29.9693290  84.4411755  16.2629462  28.6322007
  84.6724141  15.3009266  22.9676807  83.8891663  15.8430947  23.0615032
  85.3716887  15.8183246  23.3671049  87.3433045  15.9624330  31.6132145
  88.0561018  16.5971795  31.5408046  86.8523074  16.0588196  30.7972146
  82.3944959  13.7118774  32.4337715  83.0954418  14.3455257  32.5867110
  81.9240074  14.0533505  31.6733355  87.1553419  16.3023075  24.3618436
  87.3375813  15.4844730  24.8246188  87.9786405  16.5190767  23.9243326
  87.4895584  15.2291260  21.6233484  88.0183351  14.7183714  21.0103647
  87.7523804  14.9133790  22.4879018  77.9912677  13.2455129  29.3668818
  78.5766114  12.4998817  29.4996722  77.7937515  13.5559086  30.2505482
  80.8451332  16.2806376  24.3831260  80.1761707  16.7652504  23.8995300
  80.7064202  16.5275597  25.2974639  72.5830332   5.8160729  28.0873261
  72.6214431   5.2824320  28.8810379  72.0770625   5.2895935  27.4684238
  84.9856601  18.3150120  30.9813919  85.5374909  18.4781741  31.7463004
  85.3262794  18.9054558  30.3093944  89.8367475  13.1411377  36.8362573
  90.3807379  13.7541336  36.3417528  89.2554320  13.6990956  37.3529586
  88.1224988  16.2632095  27.9677601  87.9976128  15.4621835  27.4588546
  88.7804079  16.7578289  27.4791571  90.1859896  14.0641115  29.5957151
  89.2390232  13.9446467  29.5235478  90.5342670  13.1763614  29.6783412
  87.1906330  13.8593832  25.7961503  87.0431292  12.9310539  25.9769073
  88.0159823  13.8813922  25.3118578  90.7940452  14.6822390  26.8826376
  91.7186999  14.4765252  26.7450827  90.6255755  14.4338792  27.7915718
  90.5835768  15.2008058  22.2388467  90.7572645  14.6354480  21.4862320
  91.0764659  16.0008953  22.0567957  76.4012728   7.2122727  30.3052026
  75.8566196   7.9882535  30.4372301  77.2792077   7.5593531  30.1471148
  77.1878749   6.3392623  33.1982183  76.4460485   6.4875259  33.7846814
  76.8671494   6.6000889  32.3348933  85.1322412  15.8808601  32.9962573
  85.4409539  15.6357748  33.8685273  85.9297894  16.0855240  32.5081443
  85.1543024  18.0346511  25.2267950  84.7148014  17.5422890  25.9200806
  85.9051141  17.4919479  24.9860025  77.6335363  14.2258052  25.2292578
  78.4593383  13.9261824  24.8491221  77.2829415  13.4565674  25.6782366
  82.6016896  13.5784520  27.2990251  81.9796906  12.9155225  26.9992479
  83.2721763  13.6045652  26.6163899  75.8343968  12.1444378  26.1881511
  74.9975876  11.7166553  26.0065513  75.8067614  12.3376822  27.1252303
  93.1596269  12.6007431  36.1723894  92.3691813  12.5831570  35.6328394
  92.9229624  13.1395725  36.9272931  82.1630403  12.1288444  20.7748712
  82.3118524  12.8123908  20.1215385  82.9696847  12.1093534  21.2898168
  79.9183036   8.1553621  21.7809781  79.6729078   7.2515951  21.9789991
  80.0878951   8.1570772  20.8389259  85.6625809  14.6236574  18.2460459
  85.0899776  15.2426761  17.7930931  86.2358602  15.1735936  18.7800381
  88.8823069  14.9073724  19.3769042  89.8153742  14.8419286  19.5801917
  88.7946281  15.7429991  18.9183574  85.9311300  10.0115133  37.0477169
  86.8514309  10.1893732  37.2417215  85.8960883   9.0671178  36.8956868
  78.9273372   7.9216168  29.6899950  79.1459382   8.8533275  29.7087984
  79.3399146   7.5624142  30.4754754  75.0181725   8.8256638  27.9423565
  74.3245196   8.4110591  27.4293519  75.7654716   8.8677175  27.3456984
  76.9318467   8.7574892  25.8189580  76.9089155   8.8562579  24.8671463
  77.2419104   9.6040043  26.1406746  79.5905845  10.8151047  29.9336194
  80.5449099  10.7834989  29.8666126  79.3918369  10.3541671  30.7486420
  80.1805227   9.3852163  32.5006992  80.9998116   9.8796242  32.5241829
  80.4542035   8.4684131  32.4724560  77.9456074  16.3570666  26.9506392
  77.8110542  15.5971067  26.3844390  77.5288136  17.0811566  26.4835181
  81.1025200  17.2539983  27.1624835  80.9857584  18.1985416  27.0603525
  80.2817646  16.9513545  27.5510634  87.9593534  10.7871144  38.6991330
  88.8284693  10.9611797  38.3377965  87.4800285  11.6065561  38.5767059
  82.1279714  17.9068245  30.3780763  83.0306961  17.9391856  30.6947258
  81.9017084  16.9768696  30.3927099  83.8833316  16.6599232  27.0390842
  82.9328947  16.6601093  26.9255214  84.1865802  15.9131966  26.5226877
  99.6186009  22.4959770  28.1036604 100.2564419  22.3766518  27.3999944
  99.5006852  23.4440614  28.1624556  96.4275716  22.4487198  28.0398129
  96.0894227  22.3328263  27.1518664  97.2965484  22.0478363  28.0199135
  92.2862531  24.3022675  24.0295020  91.7227397  24.2112612  23.2611308
  92.1714926  23.4822579  24.5097512  96.9095499  23.6022050  33.9984335
  96.8984140  23.2074848  33.1264838  97.0716138  22.8688123  34.5918106
  89.8326963  25.7973866  26.8679240  90.6248255  25.4564691  26.4525540
  90.0723614  25.9068841  27.7881394  97.8662090  27.9693642  19.3409485
  97.2150070  28.5547723  18.9543499  98.6606453  28.4999837  19.4004522
  91.7917717  25.0582780  19.7396619  92.5648593  24.5111767  19.6009495
  92.1443116  25.9227029  19.9511081  93.6302760  26.3859162  32.9463518
  93.3392626  27.2904793  32.8310185  94.2659744  26.4275689  33.6607588
  94.5558967  23.7636010  29.5364878  95.1522539  23.5392033  28.8221841
  94.6133938  23.0220756  30.1390326  99.1727278  20.2211224  25.1789812
  99.9590367  19.8030647  24.8280229  99.4365982  21.1257316  25.3471461
  93.8480284  23.1203552  19.5739444  93.7316542  22.4448455  20.2420528
  93.9582544  22.6335926  18.7571597  96.1911825  22.5813699  23.2786133
  95.8270032  22.0544320  23.9899055  97.0478941  22.1912168  23.1052619
  98.5892645  26.0720577  29.9413312  98.2893368  26.9745616  29.8329119
  98.2443704  25.8052761  30.7934465  92.0405126  22.5234374  25.9750017
  91.1155623  22.3910588  26.1827708  92.2889540  23.3028593  26.4719959
 101.9889789  18.5903118  27.6210750 101.0806666  18.5218526  27.3269510
 101.9377385  19.0675062  28.4492575  89.4013937  22.1667648  26.8093806
  89.5306319  22.4202127  27.7233217  88.7211389  22.7595356  26.4898461
  93.5713425  32.8364898  22.9084280  93.4937454  33.7872723  22.9872760
  92.9675068  32.4910770  23.5659206  96.0630655  20.0092763  35.5645647
  95.2863989  20.5686683  35.5548511  96.7021218  20.4949546  36.0860517
 103.8551435  16.7919556  29.3988623 103.2125815  17.0852089  28.7528418
 103.3506364  16.6772476  30.2041820  94.3177027  22.8178216  35.1263614
  95.0591711  23.3563260  34.8498437  93.6114012  23.4444505  35.2835166
  99.7932366  24.9607357  33.7235775 100.2015723  24.5189767  32.9790408
  99.0709628  24.3859984  33.9769968  96.1463437  19.8979964  31.0969332
  96.9924632  20.3219377  31.2403981  96.0862074  19.2413588  31.7907895
 100.1161181  25.5208548  27.4788064  99.4870044  25.6854262  26.7764132
  99.7286843  25.9350157  28.2499028 103.9950413  26.4562985  24.8332428
 103.3101451  26.8361887  24.2829461 104.0794262  27.0658312  25.5664376
  99.2962882  17.5584332  32.7550506  99.0523814  18.3126393  32.2184782
  99.5722812  17.9369680  33.5897753 101.2501345  24.1022944  31.4327771
 101.4618240  24.7454704  30.7562153 101.2031093  23.2685261  30.9649702
  98.8527574  16.7140765  28.3364344  97.9912053  17.0122019  28.6281081
  98.8790008  16.9311164  27.4045376  95.6689143  25.2582956  24.7438149
  96.1327489  25.5370659  23.9542772  95.4045941  24.3566400  24.5611240
  92.5613224  24.8054437  27.6817913  93.1314581  25.2341706  27.0435397
  93.1521336  24.5237022  28.3802098  94.6058029  21.3806108  21.5527714
  95.3082072  21.8327152  22.0201641  94.2738658  20.7389927  22.1807608
  93.0538391  19.9717865  35.9278924  92.4237051  20.6534145  36.1614321
  92.9474478  19.8600946  34.9832062  88.3483363  19.6389661  26.8544848
  87.5582417  19.8947189  26.3784959  88.8394610  20.4537999  26.9596888
 102.3647173  26.9794900  29.6050129 103.1864616  26.5775087  29.3232810
 102.3609575  26.8763134  30.5566245  90.2998108  20.0034240  23.8128325
  89.5029272  20.1152934  24.3311820  90.0723701  20.3420892  22.9469215
  96.1303776  26.5278943  31.7610839  96.1948209  26.9899350  32.5969011
  95.4214700  25.8976308  31.8893149  86.6321066  19.8920151  29.2859839
  86.8829104  20.7767161  29.5517415  87.1680614  19.7124753  28.5134931
  95.8451794  28.1947051  21.6289820  95.7097468  29.0398586  22.0574667
  96.3861606  28.3966328  20.8655753  92.3319133  14.2738630  38.2904175
  91.9386079  13.7204829  38.9651819  93.1485274  14.5849209  38.6810692
  89.2981191  25.7122489  22.2017745  89.8105712  26.5065739  22.3523309
  89.9503904  25.0148779  22.1351346  91.1076076  28.8288245  24.2840498
  91.2842704  29.7506210  24.0961482  91.9032909  28.5146664  24.7134878
  95.2487094  15.6896510  35.8824431  95.9896808  16.2903663  35.8028894
  95.4805017  14.9474147  35.3242474  90.3928432  20.8752877  34.1602661
  90.2781947  19.9738134  34.4609760  89.5372950  21.1216574  33.8087478
  97.4720270  28.8170617  35.7590162  97.0284124  28.0306996  35.4411066
  98.1337484  29.0049768  35.0934052  92.2307391  30.3466419  30.2850840
  92.7814816  30.2183482  29.5127834  91.3918867  30.6461308  29.9345733
  99.5701508  29.0973417  33.7871563  99.5519983  29.9182298  33.2951832
 100.4921428  28.9727492  34.0121704  96.0274562  26.6117547  34.6295071
  96.5602899  25.8505835  34.3994379  95.4988643  26.3191198  35.3719226
  87.2630108  24.0411143  22.9777315  88.1005330  24.4508151  22.7611023
  87.4408376  23.1010585  22.9477509  98.2740798  14.0882268  28.1237946
  97.7705593  14.0512403  27.3105752  98.5671405  14.9975010  28.1834603
  94.5183684  14.1720997  27.1304128  95.3836680  13.9763806  26.7710018
  94.5861192  13.9431349  28.0573485  97.3927275  25.7403539  22.1413883
  96.8648637  25.0056299  21.8287121  96.8914778  26.5178215  21.8953852
 102.3720121  23.9352560  27.2580930 101.7143795  24.6251821  27.3461058
 103.1760520  24.3248991  27.6014916  92.1246003  16.4023205  24.5020495
  92.6989755  16.1798387  23.7693688  92.7116985  16.4711900  25.2549096
 101.1825580  22.2896932  25.3084871 101.6957462  22.9226924  25.8106581
 101.8326804  21.6898128  24.9428231  98.4447954  32.2681256  18.0645543
  97.7709653  32.5712953  18.6730500  98.8313776  33.0710337  17.7151000
  97.6606411  19.7646388  27.5543212  96.7428972  19.9861335  27.3964900
  98.0766554  19.8392698  26.6954919 101.9487376  27.2702934  23.4364014
 101.4949703  26.4293844  23.4929205 101.3181343  27.9064332  23.7738794
 100.3920315  29.1079430  24.3713832 100.6843290  29.6684487  23.6526198
 100.9018936  29.4007991  25.1266991  87.2856279  21.3801858  23.6488049
  87.0880679  20.7871219  22.9239115  86.7302943  21.0754068  24.3663987
  95.2653003  21.2724965  25.7682642  95.3201612  20.3198801  25.6925118
  94.4544205  21.4284404  26.2523940  93.2045363  19.8902024  23.5273021
  92.3913228  20.1896195  23.9338213  93.7004357  19.4957713  24.2447503
  95.3553940  29.8859781  25.4607285  95.3130119  30.1120628  24.5315817
  96.2716639  29.6523156  25.6093087  98.8019574  20.3543849  32.3587915
  99.1568962  20.5815322  33.2182380  99.4491705  20.6862226  31.7365170
  92.6959437  17.4620380  29.1434256  93.3358817  17.3209139  28.4457219
  91.8636968  17.1754893  28.7672858 104.5586691  25.5438812  28.0748515
 104.9923197  25.4514101  28.9231569 105.2718271  25.5196312  27.4368531
  93.4719741  26.7622810  25.2569248  94.2660340  26.2673131  25.0551823
  92.7611434  26.2340674  24.8936954  98.2914586  29.1440906  29.6081616
  98.3451608  29.7131842  30.3759332  97.4229367  29.3142791  29.2435653
  89.7802505  20.9065892  21.3329001  88.8500093  20.8450348  21.5498963
  89.8759977  20.3841845  20.5365642  89.6988054  17.4320705  23.9207242
  89.9594871  18.3466038  23.8116403  90.5205226  16.9645148  24.0703855
  91.1712979  18.8458462  31.0906067  91.8436033  18.6375824  30.4418716
  90.3442766  18.6480548  30.6511299 105.4202240  25.5862513  30.6081401
 105.6138130  26.4908323  30.8540675 105.3202859  25.1269932  31.4419986
  97.0738551  15.4720403  33.1071728  96.4266466  16.1710353  33.0136204
  97.8439566  15.9056547  33.4747976 100.4817349  25.7369255  36.1822281
 100.3302855  25.5079807  35.2652365 100.4722029  26.6939857  36.1953626
  97.2502685  23.3101168  31.1668548  98.1794745  23.4612328  30.9937515
  96.8293715  23.3985189  30.3117194  96.0491017  27.3351832  28.9367085
  95.9102103  26.9670617  29.8093023  95.2605613  27.8499472  28.7651043
  96.6439169  32.4360929  20.2792622  96.8190925  31.9648972  21.0938244
  95.9571957  33.0626695  20.5073882  97.5996232  26.7133435  26.3255923
  97.2646065  26.6734205  27.2213573  97.1000178  26.0478151  25.8526333
  91.5740476  22.1201065  31.8508504  91.4360274  21.3881304  32.4520043
  92.4845400  22.0309965  31.5692692  94.2022777  21.8321024  31.3392184
  94.9122396  21.1914217  31.2978802  94.1592085  22.0833919  32.2618365
 102.1909556  28.7688378  34.2598763 102.1322102  28.0847598  33.5929346
 102.5929074  29.5107368  33.8079389  92.9151711  18.8186242  33.1587823
  92.3789068  18.3676981  33.8109420  92.3268419  18.9532151  32.4158288
  91.2100254  35.5850292  27.0532482  91.4496853  36.2168816  27.7311500
  90.3669451  35.2338332  27.3397841 102.1926963  26.7327962  32.4912743
 101.3053742  26.3953884  32.6139142 102.7625514  26.0010993  32.7281508
  83.8456110  23.0652053  25.8155794  84.5327150  22.7513784  25.2276809
  83.6904239  23.9693418  25.5423045  88.6490832  17.9542250  30.2440818
  88.5649021  17.3467920  29.5091228  87.8273539  18.4451268  30.2450314
  95.7228116  31.3929414  29.4573986  95.6498288  32.1984386  29.9693290
  95.2805509  31.5921380  28.6322007  95.5117896  30.6301184  22.9676807
  94.7285418  31.1722864  23.0615032  96.2110641  31.1475164  23.3671049
  98.1826800  31.2916248  31.6132145  98.8954772  31.9263713  31.5408046
  97.6916829  31.3880114  30.7972146  99.9044327  25.1967501  23.1849436
  98.9700606  25.3168963  23.0154141 100.0820995  24.2939968  22.9209446
  95.4049515  18.5813197  25.3382697  95.0347302  18.0284237  26.0263603
  95.9008607  17.9771330  24.7857697  93.2338713  29.0410692  32.4337715
  93.9348173  29.6747175  32.5867110  92.7633828  29.3825423  31.6733355
 101.0339999  21.5955299  30.2590266 100.3811450  21.8431206  29.6042718
 101.4120379  20.7819437  29.9252743  97.9947173  31.6314992  24.3618436
  98.1769568  30.8136648  24.8246188  98.8180159  31.8482684  23.9243326
  98.3289339  30.5583177  21.6233484  98.8577105  30.0475632  21.0103647
  98.5917558  30.2425708  22.4879018  97.0827572  22.3375110  36.7456303
  96.4068209  22.2369239  37.4158678  97.9055206  22.1814324  37.2092300
  88.8306431  28.5747047  29.3668818  89.4159868  27.8290735  29.4996722
  88.6331270  28.8851003  30.2505482  91.6845087  31.6098294  24.3831260
  91.0155462  32.0944422  23.8995300  91.5457956  31.8567514  25.2974639
  83.4224086  21.1452647  28.0873261  83.4608186  20.6116238  28.8810379
  82.9164379  20.6187852  27.4684238  95.8250355  33.6442038  30.9813919
  96.3768663  33.8073659  31.7463004  96.1656549  34.2346475  30.3093944
  90.8014848  15.9917187  31.5835803  90.8656175  16.8532018  31.1713201
  90.7381969  15.3791189  30.8508162  90.2767121  18.0640320  35.2308838
  90.9039160  17.6817397  35.8446362  89.4195040  17.8454522  35.5964530
 100.6761230  28.4703295  36.8362573 101.2201134  29.0833253  36.3417528
 100.0948074  29.0282873  37.3529586  87.0532664  19.8716749  21.1627193
  87.3486105  18.9627427  21.1094246  86.1520700  19.8504488  20.8408195
  98.9618743  31.5924013  27.9677601  98.8369882  30.7913753  27.4588546
  99.6197834  32.0870206  27.4791571  90.5826911  17.9472746  27.1454741
  89.8613497  18.5608713  27.0062214  91.3720167  18.4830510  27.0671387
 101.0253651  29.3933033  29.5957151 100.0783986  29.2738384  29.5235478
 101.3736424  28.5055531  29.6783412  93.3853224  15.2827172  33.4195393
  93.9087626  15.5289469  34.1821702  93.1665558  16.1147207  32.9998530
  88.7820505  17.5530847  21.2866518  88.4533212  16.6728226  21.1041624
  89.1359876  17.4978515  22.1742907  98.0300084  29.1885749  25.7961503
  97.8825047  28.2602457  25.9769073  98.8553578  29.2105840  25.3118578
  91.8962329  17.8403816  21.6541995  92.2358401  18.3689738  20.9320604
  92.3434449  18.1784223  22.4300562 101.6334206  30.0114308  26.8826376
 102.5580754  29.8057169  26.7450827 101.4649509  29.7630709  27.7915718
  94.5905769  16.2240867  31.1045063  94.2502590  15.4248680  31.5065743
  93.8844776  16.5242578  30.5321897  95.2422241  13.3090180  29.5572386
  96.0648310  12.8350658  29.4351277  95.4860305  14.0880663  30.0571073
  92.7660820  20.0009300  27.3664365  92.6205401  20.3149603  28.2588647
  92.2886024  20.6194201  26.8135264  94.6257203  16.9911848  27.4145255
  94.6118772  16.0952942  27.0777553  95.3429631  16.9982512  28.0483541
  96.4783334  17.4249188  29.4598382  96.2201111  18.3466259  29.4582713
  95.9468374  17.0279623  30.1498846 101.4229522  30.5299976  22.2388467
 101.5966400  29.9646398  21.4862320 101.9158414  31.3300870  22.0567957
  87.2406482  22.5414645  30.3052026  86.6959950  23.3174453  30.4372301
  88.1185832  22.8885449  30.1471148  94.0294099  15.8726229  22.6832825
  94.1510010  14.9442875  22.8823712  93.7396141  15.8864914  21.7711140
  88.0272504  21.6684541  33.1982183  87.2854240  21.8167176  33.7846814
  87.7065248  21.9292807  32.3348933  95.9716167  31.2100519  32.9962573
  96.2803293  30.9649666  33.8685273  96.7691649  31.4147158  32.5081443
  95.9936779  33.3638429  25.2267950  95.5541769  32.8714807  25.9200806
  96.7444896  32.8211396  24.9860025  88.4729118  29.5549970  25.2292578
  89.2987138  29.2553742  24.8491221  88.1223170  28.7857592  25.6782366
  93.4410651  28.9076438  27.2990251  92.8190660  28.2447143  26.9992479
  94.1115518  28.9337570  26.6163899  86.6737723  27.4736296  26.1881511
  85.8369631  27.0458470  26.0065513  86.6461368  27.6668739  27.1252303
  93.5135178  17.3858226  36.8922757  93.5623334  18.2620349  36.5100527
  94.0557692  16.8435619  36.3194401 103.9990024  27.9299349  36.1723894
 103.2085568  27.9123488  35.6328394 103.7623379  28.4687643  36.9272931
 104.1187899  24.7791816  33.4856623 104.1685904  24.6141823  34.4272146
 104.0101822  23.9119075  33.0954504  93.0024158  27.4580361  20.7748712
  93.1512278  28.1415826  20.1215385  93.8090601  27.4385451  21.2898168
 101.4091661  20.7622744  34.8015930 102.3101524  20.6229208  34.5099928
 101.4839636  20.9277198  35.7414107  95.7434467  18.1389598  33.6469116
  94.8737776  18.4323164  33.3751705  95.9793947  18.7230043  34.3676380
 105.6206096  27.1988757  33.7298645 105.3290904  27.5618738  34.5662106
 105.0078227  26.4855765  33.5511977 103.8693284  22.3221372  32.1978703
 104.3447406  22.5149018  31.3897554 102.9458849  22.3780557  31.9522086
  90.7576791  23.4845539  21.7809781  90.5122833  22.5807869  21.9789991
  90.9272705  23.4862689  20.8389259  98.4473501  14.3569215  31.1634536
  98.9655444  15.0930242  30.8381025  98.0928633  14.6633209  31.9981296
  90.0272438  19.2173896  19.2795942  89.3341683  19.2918251  18.6235978
  89.7824190  18.4534240  19.8017459  96.5019563  29.9528492  18.2460459
  95.9293530  30.5718679  17.7930931  97.0752357  30.5027853  18.7800381
 102.5694953  19.1987132  30.4307008 103.5212376  19.2985229  30.4519232
 102.3998403  18.4065400  30.9405093 100.5909333  16.2842715  30.6166409
  99.9959265  16.5647728  29.9212898 100.3059029  16.7736616  31.3883150
  99.7216823  30.2365642  19.3769042 100.6547496  30.1711203  19.5801917
  99.6340036  31.0721909  18.9183574 105.0483031  22.4193251  29.5449308
 105.0159351  21.4809252  29.7308992 105.6583655  22.4977288  28.8115133
  96.7705054  25.3407051  37.0477169  97.6908064  25.5185650  37.2417215
  96.7354637  24.3963096  36.8956868  85.9887219  20.5345644  25.9730443
  85.6690004  19.6810952  25.6804817  85.4420647  20.7494222  26.7288411
  89.7667127  23.2508085  29.6899950  89.9853137  24.1825193  29.7087984
  90.1792901  22.8916060  30.4754754  94.6394992  18.8241291  39.0802699
  94.5391719  19.7735648  39.0114790  94.4216534  18.4959530  38.2078769
  85.8575479  24.1548556  27.9423565  85.1638951  23.7402508  27.4293519
  86.6048470  24.1969092  27.3456984  94.5026262  22.2538430  37.8967761
  94.0193344  23.0538790  38.1031650  94.5887201  22.2646375  36.9435205
  87.7712222  24.0866809  25.8189580  87.7482910  24.1854497  24.8671463
  88.0812858  24.9331960  26.1406746  90.4299600  26.1442965  29.9336194
  91.3842853  26.1126907  29.8666126  90.2312123  25.6833588  30.7486420
  91.0198982  24.7144081  32.5006992  91.8391871  25.2088159  32.5241829
  91.2935790  23.7976049  32.4724560  88.7849828  31.6862584  26.9506392
  88.6504296  30.9262985  26.3844390  88.3681891  32.4103484  26.4835181
  91.9418954  32.5831901  27.1624835  91.8251338  33.5277334  27.0603525
  91.1211401  32.2805463  27.5510634  86.2733896  19.0482214  33.1999189
  86.9192760  18.5381168  33.6886414  86.0651047  19.7850896  33.7742614
  98.7987288  26.1163062  38.6991330  99.6678448  26.2903714  38.3377965
  98.3194040  26.9357479  38.5767059  92.9673468  33.2360163  30.3780763
  93.8700715  33.2683773  30.6947258  92.7410839  32.3060614  30.3927099
  94.7227070  31.9891149  27.0390842  93.7722701  31.9893011  26.9255214
  95.0259557  31.2423884  26.5226877  90.6131387  16.1949831  37.2974203
  91.4762849  15.8386636  37.5077528  90.0396798  15.8563726  37.9849608
 103.1256286  39.6314592  24.0295020 102.5621151  39.5404529  23.2611308
 103.0108681  38.8114497  24.5097512 100.6720718  41.1265784  26.8679240
 101.4642010  40.7856609  26.4525540 100.9117368  41.2360759  27.7881394
 102.6311472  40.3874697  19.7396619 103.4042348  39.8403684  19.6009495
 102.9836871  41.2518947  19.9511081 104.4696514  41.7151079  32.9463518
 104.1786380  42.6196710  32.8310185 105.1053499  41.7567607  33.6607588
 105.3952721  39.0927928  29.5364878 105.9916293  38.8683950  28.8221841
 105.4527693  38.3512673  30.1390326 104.6874038  38.4495469  19.5739444
 104.5710296  37.7740373  20.2420528 104.7976298  37.9627843  18.7571597
 102.8798881  37.8526292  25.9750017 101.9549377  37.7202506  26.1827708
 103.1283294  38.6320511  26.4719959 100.2407692  37.4959565  26.8093806
 100.3700073  37.7494044  27.7233217  99.5605143  38.0887273  26.4898461
 104.4107179  48.1656815  22.9084280 104.3331209  49.1164640  22.9872760
 103.8068823  47.8202688  23.5659206 105.1570781  38.1470134  35.1263614
 105.8985466  38.6855178  34.8498437 104.4507767  38.7736423  35.2835166
 103.4006979  40.1346355  27.6817913 103.9708336  40.5633623  27.0435397
 103.9915090  39.8528940  28.3802098 103.8932145  35.3009782  35.9278924
 103.2630806  35.9826063  36.1614321 103.7868233  35.1892864  34.9832062
  99.1877118  34.9681578  26.8544848  98.3976171  35.2239107  26.3784959
  99.6788365  35.7829916  26.9596888 101.1391863  35.3326158  23.8128325
 100.3423026  35.4444852  24.3311820 100.9117455  35.6712810  22.9469215
  97.4714820  35.2212069  29.2859839  97.7222859  36.1059079  29.5517415
  98.0074369  35.0416670  28.5134931 103.1712888  29.6030548  38.2904175
 102.7779833  29.0496747  38.9651819 103.9879028  29.9141127  38.6810692
 100.1374946  41.0414406  22.2017745 100.6499466  41.8357657  22.3523309
 100.7897658  40.3440697  22.1351346 101.9469830  44.1580163  24.2840498
 102.1236459  45.0798127  24.0961482 102.7426664  43.8438582  24.7134878
 101.2322187  36.2044795  34.1602661 101.1175702  35.3030052  34.4609760
 100.3766705  36.4508491  33.8087478 103.0701146  45.6758336  30.2850840
 103.6208571  45.5475400  29.5127834 102.2312622  45.9753225  29.9345733
  98.1023862  39.3703061  22.9777315  98.9399084  39.7800069  22.7611023
  98.2802130  38.4302503  22.9477509 102.9639757  31.7315123  24.5020495
 103.5383509  31.5090304  23.7693688 103.5510740  31.8003817  25.2549096
  98.1250033  36.7093776  23.6488049  97.9274433  36.1163137  22.9239115
  97.5696697  36.4045986  24.3663987 104.0439117  35.2193942  23.5273021
 103.2306983  35.5188113  23.9338213 104.5398111  34.8249631  24.2447503
 103.5353192  32.7912298  29.1434256 104.1752571  32.6501057  28.4457219
 102.7030722  32.5046811  28.7672858 104.3113496  42.0914728  25.2569248
 105.1054094  41.5965048  25.0551823 103.6005188  41.5632591  24.8936954
 100.6196259  36.2357810  21.3329001  99.6893847  36.1742265  21.5498963
 100.7153731  35.7133763  20.5365642 100.5381808  32.7612623  23.9207242
 100.7988626  33.6757956  23.8116403 101.3598981  32.2937065  24.0703855
 102.0106734  34.1750380  31.0906067 102.6829787  33.9667742  30.4418716
 101.1836520  33.9772466  30.6511299 102.4134231  37.4492983  31.8508504
 102.2754029  36.7173222  32.4520043 103.3239154  37.3601883  31.5692692
 105.0416531  37.1612942  31.3392184 105.7516150  36.5206134  31.2978802
 104.9985840  37.4125837  32.2618365 103.7545465  34.1478160  33.1587823
 103.2182822  33.6968898  33.8109420 103.1662174  34.2824069  32.4158288
 102.0494009  50.9142209  27.0532482 102.2890607  51.5460733  27.7311500
 101.2063205  50.5630249  27.3397841  94.6849865  38.3943971  25.8155794
  95.3720904  38.0805701  25.2276809  94.5297993  39.2985336  25.5423045
  99.4884587  33.2834168  30.2440818  99.4042775  32.6759837  29.5091228
  98.6667293  33.7743186  30.2450314 104.0732468  44.3702609  32.4337715
 104.7741927  45.0039092  32.5867110 103.6027583  44.7117341  31.6733355
  99.6700186  43.9038964  29.3668818 100.2553623  43.1582652  29.4996722
  99.4725024  44.2142921  30.2505482 102.5238841  46.9390212  24.3831260
 101.8549216  47.4236339  23.8995300 102.3851711  47.1859432  25.2974639
  94.2617841  36.4744565  28.0873261  94.3001940  35.9408155  28.8810379
  93.7558134  35.9479770  27.4684238 101.6408603  31.3209105  31.5835803
 101.7049929  32.1823936  31.1713201 101.5775723  30.7083107  30.8508162
 101.1160876  33.3932238  35.2308838 101.7432914  33.0109315  35.8446362
 100.2588794  33.1746440  35.5964530  97.8926418  35.2008667  21.1627193
  98.1879859  34.2919345  21.1094246  96.9914454  35.1796406  20.8408195
 101.4220665  33.2764663  27.1454741 100.7007251  33.8900631  27.0062214
 102.2113921  33.8122428  27.0671387 104.2246979  30.6119090  33.4195393
 104.7481381  30.8581386  34.1821702 104.0059312  31.4439125  32.9998530
  99.6214260  32.8822764  21.2866518  99.2926966  32.0020143  21.1041624
  99.9753631  32.8270433  22.1742907 102.7356083  33.1695734  21.6541995
 103.0752156  33.6981655  20.9320604 103.1828203  33.5076140  22.4300562
 105.4299524  31.5532785  31.1045063 105.0896344  30.7540598  31.5065743
 104.7238530  31.8534496  30.5321897 103.6054574  35.3301218  27.3664365
 103.4599155  35.6441521  28.2588647 103.1279778  35.9486118  26.8135264
  98.0800237  37.8706562  30.3052026  97.5353705  38.6466370  30.4372301
  98.9579586  38.2177367  30.1471148 104.8687853  31.2018146  22.6832825
 104.9903764  30.2734792  22.8823712 104.5789896  31.2156832  21.7711140
  98.8666258  36.9976459  33.1982183  98.1247994  37.1459094  33.7846814
  98.5459003  37.2584724  32.3348933  99.3122872  44.8841887  25.2292578
 100.1380892  44.5845659  24.8491221  98.9616924  44.1149510  25.6782366
 104.2804405  44.2368356  27.2990251 103.6584415  43.5739061  26.9992479
 104.9509272  44.2629487  26.6163899  97.5131477  42.8028214  26.1881511
  96.6763385  42.3750388  26.0065513  97.4855123  42.9960657  27.1252303
 104.3528933  32.7150144  36.8922757 104.4017088  33.5912266  36.5100527
 104.8951447  32.1727537  36.3194401 103.8417912  42.7872279  20.7748712
 103.9906033  43.4707743  20.1215385 104.6484356  42.7677369  21.2898168
 101.5970545  38.8137457  21.7809781 101.3516587  37.9099787  21.9789991
 101.7666460  38.8154607  20.8389259 100.8666193  34.5465814  19.2795942
 100.1735438  34.6210169  18.6235978 100.6217945  33.7826158  19.8017459
  96.8280974  35.8637562  25.9730443  96.5083758  35.0102870  25.6804817
  96.2814402  36.0786140  26.7288411 100.6060881  38.5800003  29.6899950
 100.8246891  39.5117111  29.7087984 101.0186655  38.2207977  30.4754754
 105.4788747  34.1533209  39.0802699 105.3785474  35.1027566  39.0114790
 105.2610289  33.8251448  38.2078769  96.6969234  39.4840473  27.9423565
  96.0032705  39.0694426  27.4293519  97.4442225  39.5261010  27.3456984
 105.3420017  37.5830347  37.8967761 104.8587098  38.3830708  38.1031650
 105.4280956  37.5938292  36.9435205  98.6105976  39.4158727  25.8189580
  98.5876664  39.5146414  24.8671463  98.9206613  40.2623878  26.1406746
 101.2693354  41.4734882  29.9336194 102.2236608  41.4418825  29.8666126
 101.0705878  41.0125506  30.7486420 101.8592736  40.0435998  32.5006992
 102.6785625  40.5380077  32.5241829 102.1329544  39.1267966  32.4724560
  99.6243583  47.0154502  26.9506392  99.4898051  46.2554903  26.3844390
  99.2075645  47.7395402  26.4835181 102.7812709  47.9123819  27.1624835
 102.6645093  48.8569251  27.0603525 101.9605155  47.6097380  27.5510634
  97.1127651  34.3774132  33.1999189  97.7586514  33.8673086  33.6886414
  96.9044802  35.1142814  33.7742614 103.8067223  48.5652081  30.3780763
 104.7094470  48.5975691  30.6947258 103.5804593  47.6352532  30.3927099
 105.5620825  47.3183067  27.0390842 104.6116456  47.3184929  26.9255214
 105.8653311  46.5715802  26.5226877 101.4525142  31.5241749  37.2974203
 102.3156603  31.1678554  37.5077528 100.8790552  31.1855644  37.9849608
 105.1011595  51.8036482  28.0873261 105.1395695  51.2700073  28.8810379
 104.5951888  51.2771688  27.4684238   1.7893559  48.6521955  86.2551933
   1.1539392  48.7256582  86.9672838   1.4590965  49.2415554  85.5771012
   3.9547802  43.5320610  86.4647946   4.8665658  43.7647997  86.2895644
   3.4457449  44.1157654  85.9023025   6.4406616  49.4500866  91.2105892
   5.7557654  49.8299768  90.6602925   6.5250466  50.0596193  91.9437839
  12.9009369  46.3171529  92.3308564  12.1473077  45.7478927  92.1752568
  13.0356910  46.2834194  93.2779199   1.6050743  44.7024105  85.0434612
   1.0897367  45.4728709  85.2822999   1.3328052  44.0289241  85.6667673
   6.5785017  47.4556459  86.9787785   5.8014460  47.1167619  86.5342947
   7.2576498  47.4609082  86.3042750   1.3937046  42.5751197  86.8694393
   1.0887182  42.8897346  87.7204536   2.3467489  42.6532617  86.9121726
   4.8176324  46.9290440  93.6354393   4.1599999  47.6189702  93.7234522
   5.6216724  47.3186872  93.9788380   3.6281783  45.2834813  91.6858335
   4.1413665  45.9164805  92.1880045   4.2783007  44.6836009  91.3201695
   0.8897662  44.1575684  89.0619356   1.6369481  44.6697082  88.7526478
   1.1589251  43.8359737  89.9223749   4.3943579  50.2640815  89.8137478
   3.9405906  49.4231724  89.8702668   3.7637546  50.9002213  90.1512258
   2.8376519  52.1017311  90.7487296   3.1299493  52.6622368  90.0299662
   3.3475139  52.3945872  91.5040455   6.9773514  46.4700166  89.4410707
   6.8391413  46.6601762  88.5131897   6.6209733  47.2319549  89.8978758
   7.0042894  48.5376693  94.4521979   7.4379401  48.4451982  95.3005033
   7.7174475  48.5134193  93.8141995   2.9811627  47.0527350  82.9766446
   2.3640798  46.3274179  82.8799499   2.5128116  47.8136711  82.6333521
   9.1200507  45.1374060  93.6302768   9.1090383  46.0198776  93.2596701
   8.2517886  44.7845611  93.4357305   2.3500530  48.1905382  89.5622900
   1.4156809  48.3106844  89.3927604   2.5277199  47.2877849  89.2982910
   5.7373081  44.0322701  90.0972934   6.2033534  44.8650693  90.0233237
   6.1880582  43.5667683  90.8018193   3.8049313  50.3766522  87.0959086
   4.0809156  50.2623117  88.0052960   2.9353811  49.9784007  87.0571259
   0.7745542  53.5521058  88.0006948   1.3033308  53.0413513  87.3877110
   1.0373762  53.2363589  88.8652481   1.4074946  54.5861894  94.3451065
   1.2826085  53.7851634  93.8362010   2.0654037  55.0808087  93.8565035
   3.4709854  52.3870914  95.9730615   2.5240190  52.2676265  95.9008941
   3.8192627  51.4993412  96.0556876   4.0790409  53.0052189  93.2599840
   5.0036957  52.7995050  93.1224291   3.9105713  52.7568590  94.1689181
   3.8685726  53.5237857  88.6161931   4.0422603  52.9584279  87.8635784
   4.3614617  54.3238751  88.4341421   9.7225117  46.2874279  90.2352231
  10.1656263  45.5381605  89.8371354   8.8451627  46.2784416  89.8525963
   4.8560898  52.8404621  85.7158829   5.5511803  53.4611314  85.9346144
   5.1984048  51.9899972  85.9911207   6.7552321  50.2904326  87.2446160
   7.2803645  50.6291599  86.5195480   6.6674674  49.3551342  87.0609295
   9.2657981  47.7579518  92.6274679  10.1004873  48.1969322  92.7912239
   9.4017110  47.2818171  91.8082924   2.1673026  53.2303523  85.7542505
   3.1003699  53.1649084  85.9575381   2.0796239  54.0659790  85.2957038
   4.7961043  52.5469393  82.7146453   4.7174675  52.2129257  83.6082211
   5.6170710  53.0391161  82.7137925  13.3115784  46.4747139  95.0628808
  14.0419172  46.2132427  95.6236512  12.7022729  45.7375861  95.1030876
   3.2221781  40.0992714  88.2408411   2.3347636  40.3842364  88.0228606
   3.6375770  39.9386477  87.3935688   2.3664995  49.8637388  82.3356431
   3.0700845  50.0687391  82.9514087   1.6427644  50.4314150  82.6005515
   3.1962805  45.6147250  88.4558701   3.1398006  46.0715801  87.6166334
   3.7491148  44.8537934  88.2781544   7.0067611  41.4036982  89.2808821
   6.7504545  41.0033617  90.1117029   6.3820479  42.1180776  89.1558960
  11.3179949  44.1433055  91.7880112  10.7579507  44.2126244  92.5611674
  10.7123452  43.9674039  91.0679609   4.2751692  50.3019918  84.3854891
   5.1097296  49.8701116  84.2032366   4.1136035  50.1301931  85.3131786
   3.9297584  46.8052031  85.7511231   3.8746388  46.6396302  84.8099675
   3.3043640  47.5128064  85.9073420  12.9035967  60.8189569  94.4810068
  13.5414377  60.6996316  93.7773408  12.7856810  61.7670413  94.5398020
   9.7125674  60.7716997  94.4171593   9.3744185  60.6558062  93.5292128
  10.5815442  60.3708162  94.3972599   5.5712489  62.6252473  90.4068484
   5.0077354  62.5342410  89.6384771   5.4564884  61.8052378  90.8870976
  11.1512048  66.2923441  85.7182949  10.5000028  66.8777521  85.3316962
  11.9456411  66.8229636  85.7777986   5.0767675  63.3812578  86.1170083
   5.8498551  62.8341565  85.9782959   5.4293074  64.2456827  86.3284544
   7.8408925  62.0865809  95.9138342   8.4372497  61.8621831  95.1995305
   7.8983896  61.3450554  96.5163790   7.4133953  59.5405244  83.7488533
   7.6659474  59.0186766  82.9871996   6.4758512  59.3771390  83.8515216
  12.4577236  58.5441023  91.5563276  13.2440325  58.1260446  91.2053693
  12.7215940  59.4487115  91.7244924  12.6287313  63.9813873  86.2551933
  11.9933146  64.0548499  86.9672838  12.2984720  64.5707472  85.5771012
  17.8585663  58.4816256  92.4596255  18.5910835  57.9115473  92.6934084
  17.1025019  58.0937856  92.9002760   7.1330242  61.4433350  85.9512908
   7.0166500  60.7678254  86.6193992   7.2432502  60.9565724  85.1345061
   9.4761783  60.9043497  89.6559597   9.1119990  60.3774118  90.3672519
  10.3328899  60.5141966  89.4826082  15.3811083  52.1937830  96.9190863
  15.0494408  53.0633241  96.6952078  14.7856697  51.8774114  97.5984894
   9.1167270  55.9333397  84.6520946   9.2841672  56.8013633  85.0191417
   8.9264439  56.0960679  83.7282235  11.8742603  64.3950376  96.3186776
  11.5743326  65.2975415  96.2102583  11.5293662  64.1282559  97.1707929
   5.3255084  60.8464173  92.3523480   4.4005581  60.7140387  92.5601172
   5.5739497  61.6258392  92.8493423  15.2739747  56.9132916  93.9984213
  14.3656624  56.8448325  93.7042974  15.2227342  57.3904861  94.8266039
   9.0956490  58.3891055  85.6367612   8.9756116  58.8348105  86.4753093
   8.4009079  58.7376372  85.0781151   6.8563383  71.1594696  89.2857744
   6.7787412  72.1102521  89.3646224   6.2525026  70.8140569  89.9432670
  17.1401393  55.1149355  95.7762087  16.4975773  55.4081888  95.1301882
  16.6356321  55.0002275  96.5815284  14.7941557  58.8612528  86.4647946
  15.7059413  59.0939914  86.2895644  14.2851204  59.4449572  85.9023025
  13.0782324  63.2837156 100.1009239  13.4865680  62.8419566  99.3563871
  12.3559586  62.7089783 100.3543432   9.4313394  58.2209762  97.4742796
  10.2774590  58.6449176  97.6177445   9.3712032  57.5643387  98.1681359
  13.4011139  63.8438346  93.8561528  12.7720001  64.0084060  93.1537596
  13.0136801  64.2579956  94.6272492  17.2800371  64.7792784  91.2105892
  16.5951409  65.1591685  90.6602925  17.3644220  65.3888111  91.9437839
  12.5812840  55.8814131  99.1323970  12.3373772  56.6356191  98.5958245
  12.8572770  56.2599478  99.9671217  14.5351302  62.4252743  97.8101235
  14.7468198  63.0684503  97.1335616  14.4881051  61.5915060  97.3423165
  12.1377531  55.0370564  94.7137807  11.2762010  55.3351817  95.0054545
  12.1639966  55.2540963  93.7818840   8.9539101  63.5812754  91.1211613
   9.4177446  63.8600457  90.3316235   8.6895899  62.6796199  90.9384704
   5.8463182  63.1284236  94.0591376   6.4164539  63.5571504  93.4208861
   6.4371294  62.8466821  94.7575562   7.8907987  59.7035907  87.9301178
   8.5932030  60.1556950  88.3975104   7.5588615  59.0619725  88.5581071
   1.6333321  57.9619459  93.2318312   0.8432375  58.2176988  92.7558422
   2.1244568  58.7767797  93.3370352  15.6497130  65.3024698  95.9823593
  16.4714574  64.9004886  95.7006274  15.6459533  65.1992933  96.9339708
   3.5848066  58.3264039  90.1901788   2.7879229  58.4382733  90.7085284
   3.3573658  58.6650691  89.3242679  23.7403123  61.6463447  92.3308564
  22.9866832  61.0770845  92.1752568  23.8750665  61.6126111  93.2779199
   9.1301751  66.5176849  88.0063283   8.9947426  67.3628385  88.4348131
   9.6711564  66.7196127  87.2429217   2.5831149  64.0352287  88.5791208
   3.0955669  64.8295538  88.7296773   3.2353862  63.3378578  88.5124810
   4.3926034  67.1518044  90.6613962   4.5692662  68.0736008  90.4734946
   5.1882867  66.8376463  91.0908341  12.4794215  50.0407411  96.5362177
  12.1358484  50.9309053  96.4601287  12.8473178  49.8509069  95.6731762
   0.5480066  62.3640942  89.3550779   1.3855288  62.7737950  89.1384487
   0.7258333  61.4240384  89.3250973  12.4444498  60.0316022  85.0434612
  11.9291121  60.8020627  85.2822999  12.1721806  59.3581158  85.6667673
  10.0291609  54.8765723  90.1019850   9.1733205  54.4872573  89.9225489
  10.4418561  54.9557684  89.2419636  11.5590755  52.4112066  94.5011410
  11.0555551  52.3742201  93.6879215  11.8521362  53.3204809  94.5608067
   7.8033641  52.4950796  93.5077592   8.6686638  52.2993605  93.1483481
   7.8711150  52.2661148  94.4346949  17.4178772  62.7848377  86.9787785
  16.6408215  62.4459536  86.5342947  18.0970253  62.7901000  86.3042750
  12.2330801  57.9043114  86.8694393  11.9280937  58.2189264  87.7204536
  13.1861243  57.9824534  86.9121726  10.6777233  64.0633338  88.5187347
  10.1498594  63.3286097  88.2060585  10.1764736  64.8408014  88.2727315
  15.6570079  62.2582358  93.6354393  14.9993753  62.9481620  93.7234522
  16.4610478  62.6478790  93.9788380   5.4095960  54.7253004  90.8793959
   5.9839712  54.5028185  90.1467152   5.9966943  54.7941698  91.6322560
  14.4675538  60.6126731  91.6858335  14.9807419  61.2456723  92.1880045
  15.1176761  60.0127926  91.3201695   5.7365547  56.7557465  84.8989844
   4.9002860  57.0932152  85.2199119   5.5970317  56.6206445  83.9616981
   7.7118628  51.5994253  89.6069028   7.0583040  51.2843270  88.9825643
   7.6699102  50.9769993  90.3328851   8.8229833  61.8813548  81.5222320
   7.9156895  61.6502801  81.7213469   9.3200865  61.0851167  81.7096302
  11.7297912  70.5911055  84.4419006  11.0559611  70.8942752  85.0503964
  12.1163734  71.3940135  84.0924463  10.9456368  58.0876186  93.9316676
  10.0278930  58.3091133  93.7738364  11.3616512  58.1622497  93.0728383
  11.7291416  59.4867602  89.0619356  12.4763235  59.9988999  88.7526478
  11.9983006  59.1651655  89.9223749  10.0018066  61.9826143  86.0446310
   9.0929286  61.6985176  86.1418780  10.0313150  62.4025221  85.1849617
  15.2337334  65.5932732  89.8137478  14.7799661  64.7523642  89.8702668
  14.6031301  66.2294131  90.1512258  14.1770253  56.5224718  91.0438145
  13.4393010  56.0102105  91.3748388  14.4297027  56.0825100  90.2321422
  13.6770273  67.4309229  90.7487296  13.9693247  67.9914286  90.0299662
  14.1868894  67.7237790  91.5040455  14.2781881  49.3000970  91.6379914
  14.5840758  48.4398334  91.3505830  15.0034486  49.8918591  91.4378908
   8.5502960  59.5954763  92.1456106   8.6051570  58.6428600  92.0698582
   7.7394162  59.7514202  92.6297404   9.6994154  63.5234886  83.3834389
   9.2613584  62.8070745  82.9240026  10.4404595  63.7511001  82.8219480
   6.4895320  58.2131823  89.9046484   5.6763186  58.5125994  90.3111677
   6.9854315  57.8187512  90.6220967   8.6403898  68.2089580  91.8380749
   8.5980077  68.4350426  90.9089281   9.5566597  67.9752955  91.9866550
  12.0869532  58.6773648  98.7361378  12.4418920  58.9045121  99.5955844
  12.7341663  59.0092024  98.1138634  17.8167269  61.7992083  89.4410707
  17.6785168  61.9893679  88.5131897  17.4603488  62.5611466  89.8978758
   5.9809395  55.7850179  95.5207719   6.6208774  55.6438938  94.8230683
   5.1486926  55.4984692  95.1446321  17.8436649  63.8668611  94.4521979
  18.2773155  63.7743900  95.3005033  18.5568229  63.8426111  93.8141995
   6.7569699  65.0852609  91.6342712   7.5510298  64.5902929  91.4325287
   6.0461391  64.5570472  91.2710417  11.5764543  67.4670705  95.9855079
  11.6301566  68.0361641  96.7532795  10.7079325  67.6372590  95.6209117
   3.0652462  59.2295691  87.7102465   2.1350051  59.1680146  87.9272427
   3.1609934  58.7071644  86.9139106   2.9838012  55.7550504  90.2980706
   3.2444829  56.6695837  90.1889867   3.8055184  55.2874946  90.4477319
  18.7052198  63.9092311  96.9854864  18.8988088  64.8138122  97.2314139
  18.6052816  63.4499730  97.8193449  10.3588509  53.7950202  99.4845192
   9.7116424  54.4940151  99.3909668  11.1289524  54.2286346  99.8521440
  10.5352643  61.6330967  97.5442011  11.4644703  61.7842126  97.3710979
  10.1143673  61.7214987  96.6890658   9.3340975  65.6581631  95.3140549
   9.1952061  65.2900415  96.1866487   8.5455571  66.1729270  95.1424507
   9.9289127  70.7590728  86.6566085  10.1040883  70.2878771  87.4711708
   9.2421915  71.3856494  86.8847346  10.8846190  65.0363234  92.7029387
  10.5496023  64.9964004  93.5987037  10.3850136  64.3707950  92.2299797
  13.8205382  62.3819268  82.9766446  13.2034552  61.6566096  82.8799499
  13.3521870  63.1428628  82.6333521  15.4759513  67.0918176 100.6372227
  15.4172060  66.4077397  99.9702810  15.8779032  67.8337166 100.1852853
   5.6103928  56.6004692  82.0987751   4.7333394  56.4793493  81.7349997
   6.0861681  55.8090771  81.8466639  15.4776921  65.0557760  98.8686206
  14.5903700  64.7183682  98.9912605  16.0475472  64.3240792  99.1054972
   8.7967854  68.9530983  89.3450271   8.0135376  69.4952663  89.4388496
   9.4960599  69.4704962  89.7444512  12.1064504  54.7625612  91.9884477
  12.6033203  54.0095575  91.6685547  11.3351485  54.7989929  91.4227686
  19.9594261  60.4665978  93.6302768  19.9484138  61.3490693  93.2596701
  19.0911641  60.1137529  93.4357305  13.1894285  63.5197299  89.5622900
  12.2550563  63.6398762  89.3927604  13.3670953  62.6169766  89.2982910
   8.6899473  56.9042995  91.7156161   8.3197260  56.3514036  92.4037067
   9.1858565  56.3001129  91.1631161  16.5766836  59.3614619  90.0972934
  17.0427288  60.1942610  90.0233237  17.0274336  58.8959600  90.8018193
  14.6443067  65.7058440  87.0959086  14.9202911  65.5915035  88.0052960
  13.7747566  65.3075925  87.0571259  14.5483499  51.7295206  94.1363835
  13.6346578  51.9599433  94.3046042  14.9776600  51.8133650  94.9877868
  14.3189957  59.9185098  96.6363729  13.6661407  60.1661005  95.9816182
  14.6970337  59.1049236  96.3026207  11.2797131  69.9544791  90.7391900
  11.4619526  69.1366447  91.2019652  12.1030117  70.1712483  90.3016790
  11.6139297  68.8812976  88.0006948  12.1427063  68.3705431  87.3877110
  11.8767516  68.5655506  88.8652481   4.0864806  54.3146986  97.9609267
   4.1506133  55.1761817  97.5486665   4.0231927  53.7020988  97.2281626
  12.2468700  69.9153812  94.3451065  12.1219840  69.1143552  93.8362010
  12.9047791  70.4100005  93.8565035   3.8676869  56.2702544  93.5228205
   3.1463454  56.8838512  93.3835678   4.6570124  56.8060309  93.4444851
  14.3103609  67.7162832  95.9730615  13.3633944  67.5968183  95.9008941
  14.6586382  66.8285330  96.0556876   2.0670463  55.8760645  87.6639981
   1.7383169  54.9958024  87.4815087   2.4209834  55.8208314  88.5516371
  11.3150042  67.5115548  92.1734967  11.1675004  66.5832255  92.3542537
  12.1403536  67.5335639  91.6892042   5.1812286  56.1633615  88.0315459
   5.5208359  56.6919536  87.3094068   5.6284407  56.5014021  88.8074026
  14.9184164  68.3344107  93.2599840  15.8430711  68.1286968  93.1224291
  14.7499467  68.0860508  94.1689181   7.8755727  54.5470666  97.4818527
   7.5352547  53.7478479  97.8839207   7.1694733  54.8472377  96.9095360
   8.5272199  51.6319978  95.9345850   9.3498268  51.1580456  95.8124741
   8.7710262  52.4110462  96.4344537   7.1680433  54.6608237  86.2308752
   7.8888796  55.0389489  85.7272469   6.5445738  55.3797114  86.3343730
  11.3111556  55.3653386  87.1667084  11.5275171  56.2478024  86.8655912
  10.8305623  54.9739599  86.4372726   6.0510778  58.3239099  93.7437829
   5.9055358  58.6379402  94.6362110   5.5735981  58.9423999  93.1908727
   7.9107161  55.3141647  93.7918718   7.8968729  54.4182740  93.4551016
   8.6279589  55.3212311  94.4257004   9.7633291  55.7478987  95.8371846
   9.5051069  56.6696058  95.8356176   9.2318332  55.3509422  96.5272310
  14.7079480  68.8529774  88.6161931  14.8816358  68.2876197  87.8635784
  15.2008371  69.6530669  88.4341421   7.3144057  54.1956027  89.0606289
   7.4359968  53.2672673  89.2597176   7.0246099  54.2094713  88.1484604
  10.1835247  51.8810938  92.1973008  10.2056944  51.9450271  91.2424988
  10.6003306  51.0415446  92.3913515  20.5618871  61.6166197  90.2352231
  21.0050017  60.8673522  89.8371354  19.6845382  61.6076334  89.8525963
  15.6954653  68.1696539  85.7158829  16.3905557  68.7903231  85.9346144
  16.0377803  67.3191890  85.9911207  17.5946076  65.6196244  87.2446160
  18.1197400  65.9583517  86.5195480  17.5068428  64.6843259  87.0609295
   9.2786736  71.6868227  91.6041413   8.8391727  71.1944606  92.2974270
  10.0294853  71.1441195  91.3633489  17.4037857  63.1021614  99.8630087
  17.4535862  62.9371622 100.8045610  17.2951780  62.2348873  99.4727968
   6.2874115  65.7810160  87.1522176   6.4362236  66.4645624  86.4988848
   7.0940559  65.7615250  87.6671631  14.6941619  59.0852542 101.1789393
  15.5951482  58.9459007 100.8873391  14.7689594  59.2506997 102.1187571
   9.0284425  56.4619397 100.0242580   8.1587734  56.7552963  99.7525168
   9.2643905  57.0459842 100.7449843  18.9056054  65.5218556 100.1072108
  18.6140862  65.8848536 100.9435569  18.2928185  64.8085564  99.9285440
  20.1051736  63.0871435  92.6274679  20.9398627  63.5261240  92.7912239
  20.2410865  62.6110089  91.8082924  17.1543242  60.6451170  98.5752166
  17.6297363  60.8378817  97.7671018  16.2308807  60.7010356  98.3295550
   4.0426748  61.8075337  88.1583245   3.7972790  60.9037667  88.3563455
   4.2122663  61.8092488  87.2162723  11.7323458  52.6799014  97.5408000
  12.2505402  53.4160041  97.2154489  11.3778591  52.9863007  98.3754759
   3.3122396  57.5403695  85.6569406   2.6191641  57.6148050  85.0009442
   3.0674148  56.7764039  86.1790923  11.9836053  49.0999296  93.0608897
  12.2637806  48.4322485  93.6869323  12.7686659  49.2928392  92.5483561
   9.7869521  68.2758290  84.6233923   9.2143488  68.8948477  84.1704395
  10.3602315  68.8257652  85.1573845  15.8544911  57.5216930  96.8080472
  16.8062334  57.6215028  96.8292696  15.6848361  56.7295199  97.3178556
  13.8759290  54.6072514  96.9939873  13.2809222  54.8877526  96.2986361
  13.5908987  55.0966415  97.7656614  13.0066781  68.5595440  85.7542505
  13.9397454  68.4941002  85.9575381  12.9189994  69.3951707  85.2957038
  15.6354797  67.8761311  82.7146453  15.5568429  67.5421174  83.6082211
  16.4564464  68.3683079  82.7137925  18.3332989  60.7423050  95.9222772
  18.3009309  59.8039051  96.1082455  18.9433612  60.8207087  95.1888596
  10.1716320  59.6119103  81.9649976  11.1175424  59.4825311  82.0338394
   9.7930564  58.8733765  82.4419404  18.4827477  57.5334094  95.9681055
  17.9666526  56.7492550  95.7810984  19.3667426  57.2052810  96.1327574
  16.1438204  51.2775109  91.9276867  15.9463025  50.9690197  92.8120199
  16.7537910  52.0036748  92.0574797  24.1509539  61.8039057  95.0628808
  24.8812927  61.5424345  95.6236512  23.5416484  61.0667779  95.1030876
  22.2324836  59.9446919  95.6603260  21.5057999  59.8102884  95.0519751
  21.8172123  60.2523748  96.4659978   8.3559237  57.5369079  81.9004861
   7.4490692  57.2402192  81.9767574   8.6335218  57.2398898  81.0339147
   9.9721302  52.0805969  88.0549102   9.1622031  51.7353054  88.4304348
  10.6605719  51.7713513  88.6436714  11.9011851  51.1584016  89.6773399
  12.4542889  51.5779469  90.3363422  12.1381937  50.2319764  89.7196355
   7.1258021  54.3956015  82.0416840   7.9877185  54.7210913  82.3012657
   7.3108365  53.6087511  81.5289906  15.2790658  53.2684541  89.1852063
  14.6989327  53.9269345  88.8030115  15.0126590  52.4461886  88.7739480
  13.7294224  52.6689599  91.3873383  14.2294002  52.7806133  90.5787702
  14.3729832  52.3650652  92.0274192  14.0615536  55.4284631  88.2408411
  13.1741391  55.7134282  88.0228606  14.4769525  55.2678395  87.3935688
  17.4130072  55.4531152  91.9562750  18.1890462  55.9427605  92.2287367
  16.6878206  55.8789207  92.4134620  19.8502631  56.1658772  93.0136691
  20.4447121  55.9254508  92.3029999  19.9229214  55.4465902  93.6410227
  13.2058749  65.1929306  82.3356431  13.9094599  65.3979309  82.9514087
  12.4821398  65.7606068  82.6005515  14.0356560  60.9439167  88.4558701
  13.9791761  61.4007719  87.6166334  14.5884902  60.1829852  88.2781544
  17.8461365  56.7328899  89.2808821  17.5898300  56.3325535  90.1117029
  17.2214233  57.4472693  89.1558960  22.1573703  59.4724973  91.7880112
  21.5973261  59.5418162  92.5611674  21.5517207  59.2965957  91.0679609
  15.1145447  65.6311835  84.3854891  15.9491051  65.1993034  84.2032366
  14.9529790  65.4593849  85.3131786  14.7691339  62.1343949  85.7511231
  14.7140143  61.9688220  84.8099675  14.1437394  62.8419982  85.9073420
   8.0787464  51.6352058  85.3296549   8.0666134  52.5793898  85.4864820
   8.9710886  51.4522203  85.0356010  11.8939584  48.2294834  89.5842486
  11.1271980  47.6753321  89.7299168  12.3050289  48.3016703  90.4456637
  23.7429722  76.1481486  94.4810068  24.3808132  76.0288234  93.7773408
  23.6250565  77.0962330  94.5398020  20.5519428  76.1008915  94.4171593
  20.2137940  75.9849979  93.5292128  21.4209196  75.7000080  94.3972599
  16.4106244  77.9544391  90.4068484  15.8471109  77.8634328  89.6384771
  16.2958639  77.1344295  90.8870976  21.9905802  81.6215359  85.7182949
  21.3393782  82.2069439  85.3316962  22.7850165  82.1521554  85.7777986
  15.9161430  78.7104496  86.1170083  16.6892306  78.1633483  85.9782959
  16.2686828  79.5748745  86.3284544  18.6802679  77.4157727  95.9138342
  19.2766251  77.1913749  95.1995305  18.7377651  76.6742472  96.5163790
  18.2527707  74.8697162  83.7488533  18.5053228  74.3478683  82.9871996
  17.3152267  74.7063307  83.8515216  23.2970990  73.8732940  91.5563276
  24.0834079  73.4552363  91.2053693  23.5609695  74.7779033  91.7244924
  23.4681068  79.3105791  86.2551933  22.8326901  79.3840417  86.9672838
  23.1378474  79.8999389  85.5771012  28.6979417  73.8108174  92.4596255
  29.4304589  73.2407390  92.6934084  27.9418773  73.4229774  92.9002760
  17.9723996  76.7725268  85.9512908  17.8560254  76.0970171  86.6193992
  18.0826256  76.2857642  85.1345061  20.3155537  76.2335415  89.6559597
  19.9513744  75.7066036  90.3672519  21.1722653  75.8433884  89.4826082
  26.2204838  67.5229748  96.9190863  25.8888163  68.3925159  96.6952078
  25.6250451  67.2066032  97.5984894  19.9561024  71.2625315  84.6520946
  20.1235426  72.1305551  85.0191417  19.7658193  71.4252596  83.7282235
  22.7136357  79.7242294  96.3186776  22.4137080  80.6267332  96.2102583
  22.3687417  79.4574477  97.1707929  16.1648839  76.1756090  92.3523480
  15.2399335  76.0432305  92.5601172  16.4133252  76.9550310  92.8493423
  26.1133501  72.2424834  93.9984213  25.2050378  72.1740242  93.7042974
  26.0621097  72.7196779  94.8266039  19.9350245  73.7182972  85.6367612
  19.8149870  74.1640023  86.4753093  19.2402833  74.0668290  85.0781151
  17.6957137  86.4886614  89.2857744  17.6181167  87.4394439  89.3646224
  17.0918781  86.1432486  89.9432670  27.9795147  70.4441272  95.7762087
  27.3369528  70.7373805  95.1301882  27.4750076  70.3294193  96.5815284
  25.6335311  74.1904445  86.4647946  26.5453167  74.4231832  86.2895644
  25.1244958  74.7741490  85.9023025  23.9176079  78.6129073 100.1009239
  24.3259435  78.1711484  99.3563871  23.1953340  78.0381701 100.3543432
  20.2707149  73.5501680  97.4742796  21.1168344  73.9741094  97.6177445
  20.2105786  72.8935304  98.1681359  24.2404893  79.1730264  93.8561528
  23.6113756  79.3375978  93.1537596  23.8530555  79.5871873  94.6272492
  28.1194125  80.1084702  91.2105892  27.4345163  80.4883603  90.6602925
  28.2037975  80.7180028  91.9437839  23.4206594  71.2106048  99.1323970
  23.1767526  71.9648109  98.5958245  23.6966525  71.5891396  99.9671217
  25.3745057  77.7544661  97.8101235  25.5861952  78.3976421  97.1335616
  25.3274805  76.9206977  97.3423165  22.9771286  70.3662481  94.7137807
  22.1155765  70.6643735  95.0054545  23.0033721  70.5832880  93.7818840
  19.7932855  78.9104672  91.1211613  20.2571201  79.1892375  90.3316235
  19.5289653  78.0088117  90.9384704  16.6856936  78.4576153  94.0591376
  17.2558293  78.8863422  93.4208861  17.2765048  78.1758738  94.7575562
  18.7301741  75.0327824  87.9301178  19.4325785  75.4848868  88.3975104
  18.3982370  74.3911643  88.5581071  12.4727075  73.2911377  93.2318312
  11.6826129  73.5468906  92.7558422  12.9638323  74.1059715  93.3370352
  26.4890885  80.6316616  95.9823593  27.3108329  80.2296803  95.7006274
  26.4853288  80.5284850  96.9339708  14.4241821  73.6555956  90.1901788
  13.6272984  73.7674650  90.7085284  14.1967413  73.9942608  89.3242679
  34.5796878  76.9755365  92.3308564  33.8260586  76.4062763  92.1752568
  34.7144419  76.9418029  93.2779199  19.9695506  81.8468767  88.0063283
  19.8341181  82.6920303  88.4348131  20.5105318  82.0488045  87.2429217
  13.4224903  79.3644205  88.5791208  13.9349424  80.1587455  88.7296773
  14.0747616  78.6670495  88.5124810  15.2319788  82.4809961  90.6613962
  15.4086416  83.4027926  90.4734946  16.0276622  82.1668380  91.0908341
  19.3730807  69.3418226 102.2597895  20.1140520  69.9425379 102.1802358
  19.6048729  68.5995864 101.7015938  23.3187970  65.3699329  96.5362177
  22.9752239  66.2600970  96.4601287  23.6866932  65.1800986  95.6731762
  11.3873820  77.6932859  89.3550779  12.2249042  78.1029868  89.1384487
  11.5652088  76.7532301  89.3250973  23.2838252  75.3607940  85.0434612
  22.7684876  76.1312545  85.2822999  23.0115561  74.6873076  85.6667673
  20.8685363  70.2057641  90.1019850  20.0126960  69.8164491  89.9225489
  21.2812315  70.2849602  89.2419636  22.3984510  67.7403984  94.5011410
  21.8949306  67.7034119  93.6879215  22.6915117  68.6496727  94.5608067
  18.6427396  67.8242714  93.5077592  19.5080393  67.6285522  93.1483481
  18.7104905  67.5953065  94.4346949  28.2572526  78.1140295  86.9787785
  27.4801969  77.7751454  86.5342947  28.9364007  78.1192918  86.3042750
  23.0724555  73.2335032  86.8694393  22.7674691  73.5481181  87.7204536
  24.0254998  73.3116452  86.9121726  21.5170987  79.3925255  88.5187347
  20.9892349  78.6578015  88.2060585  21.0158490  80.1699932  88.2727315
  26.4963833  77.5874276  93.6354393  25.8387508  78.2773537  93.7234522
  27.3004233  77.9770708  93.9788380  16.2489715  70.0544922  90.8793959
  16.8233467  69.8320103  90.1467152  16.8360697  70.1233616  91.6322560
  25.3069292  75.9418649  91.6858335  25.8201174  76.5748640  92.1880045
  25.9570516  75.3419844  91.3201695  16.5759302  72.0849383  84.8989844
  15.7396614  72.4224069  85.2199119  16.4364072  71.9498362  83.9616981
  18.5512383  66.9286171  89.6069028  17.8976795  66.6135188  88.9825643
  18.5092857  66.3061911  90.3328851  19.6623587  77.2105466  81.5222320
  18.7550649  76.9794719  81.7213469  20.1594619  76.4143085  81.7096302
  22.5691666  85.9202973  84.4419006  21.8953365  86.2234670  85.0503964
  22.9557488  86.7232053  84.0924463  21.7850123  73.4168104  93.9316676
  20.8672684  73.6383051  93.7738364  22.2010267  73.4914415  93.0728383
  22.5685171  74.8159520  89.0619356  23.3156990  75.3280917  88.7526478
  22.8376760  74.4943572  89.9223749  20.8411821  77.3118060  86.0446310
  19.9323040  77.0277093  86.1418780  20.8706905  77.7317139  85.1849617
  26.0731088  80.9224650  89.8137478  25.6193415  80.0815560  89.8702668
  25.4425055  81.5586048  90.1512258  25.0164008  71.8516636  91.0438145
  24.2786765  71.3394022  91.3748388  25.2690781  71.4117018  90.2321422
  24.5164028  82.7601147  90.7487296  24.8087002  83.3206204  90.0299662
  25.0262648  83.0529708  91.5040455  25.1175635  64.6292888  91.6379914
  25.4234512  63.7690251  91.3505830  25.8428240  65.2210508  91.4378908
  11.4099991  75.0323575  90.0261512  11.2124391  74.4392935  89.3012579
  10.8546655  74.7275785  90.7437451  19.3896715  74.9246681  92.1456106
  19.4445325  73.9720517  92.0698582  18.5787917  75.0806120  92.6297404
  20.5387909  78.8526804  83.3834389  20.1007339  78.1362663  82.9240026
  21.2798350  79.0802919  82.8219480  17.3289075  73.5423741  89.9046484
  16.5156940  73.8417911  90.3111677  17.8248069  73.1479430  90.6220967
  19.4797653  83.5381498  91.8380749  19.4373832  83.7642344  90.9089281
  20.3960352  83.3044872  91.9866550  22.9263287  74.0065565  98.7361378
  23.2812674  74.2337038  99.5955844  23.5735418  74.3383942  98.1138634
  28.6561023  77.1284001  89.4410707  28.5178922  77.3185597  88.5131897
  28.2997242  77.8903384  89.8978758  16.8203150  71.1142096  95.5207719
  17.4602529  70.9730855  94.8230683  15.9880680  70.8276610  95.1446321
  28.6830403  79.1960528  94.4521979  29.1166910  79.1035817  95.3005033
  29.3961984  79.1718029  93.8141995  17.5963454  80.4144527  91.6342712
  18.3904052  79.9194847  91.4325287  16.8855146  79.8862390  91.2710417
  22.4158298  82.7962622  95.9855079  22.4695320  83.3653559  96.7532795
  21.5473079  82.9664507  95.6209117  13.8231766  71.0842421  90.2980706
  14.0838583  71.9987755  90.1889867  14.6448938  70.6166864  90.4477319
  29.5445953  79.2384229  96.9854864  29.7381843  80.1430039  97.2314139
  29.4446571  78.7791648  97.8193449  21.1982263  69.1242119  99.4845192
  20.5510178  69.8232069  99.3909668  21.9683279  69.5578263  99.8521440
  21.3746398  76.9622884  97.5442011  22.3038458  77.1134044  97.3710979
  20.9537428  77.0506905  96.6890658  20.1734730  80.9873549  95.3140549
  20.0345815  80.6192333  96.1866487  19.3849326  81.5021188  95.1424507
  20.7682881  86.0882645  86.6566085  20.9434637  85.6170688  87.4711708
  20.0815670  86.7148411  86.8847346  21.7239945  80.3655151  92.7029387
  21.3889777  80.3255921  93.5987037  21.2243890  79.6999867  92.2299797
  24.6599136  77.7111186  82.9766446  24.0428307  76.9858014  82.8799499
  24.1915625  78.4720546  82.6333521  26.3153268  82.4210094 100.6372227
  26.2565814  81.7369314  99.9702810  26.7172786  83.1629084 100.1852853
  16.4497682  71.9296610  82.0987751  15.5727149  71.8085411  81.7349997
  16.9255435  71.1382688  81.8466639  26.3170675  80.3849678  98.8686206
  25.4297454  80.0475600  98.9912605  26.8869226  79.6532709  99.1054972
  19.6361608  84.2822900  89.3450271  18.8529130  84.8244581  89.4388496
  20.3354353  84.7996880  89.7444512  22.9458258  70.0917530  91.9884477
  23.4426958  69.3387492  91.6685547  22.1745240  70.1281847  91.4227686
  30.7988016  75.7957895  93.6302768  30.7877892  76.6782611  93.2596701
  29.9305395  75.4429446  93.4357305  24.0288039  78.8489217  89.5622900
  23.0944318  78.9690680  89.3927604  24.2064708  77.9461684  89.2982910
  19.5293227  72.2334913  91.7156161  19.1591015  71.6805953  92.4037067
  20.0252320  71.6293046  91.1631161  27.4160590  74.6906536  90.0972934
  27.8821043  75.5234528  90.0233237  27.8668091  74.2251518  90.8018193
  25.4836822  81.0350358  87.0959086  25.7596665  80.9206952  88.0052960
  24.6141320  80.6367843  87.0571259  25.3877253  67.0587123  94.1363835
  24.4740333  67.2891350  94.3046042  25.8170355  67.1425567  94.9877868
  25.1583712  75.2477015  96.6363729  24.5055162  75.4952923  95.9816182
  25.5364092  74.4341154  96.3026207  22.1190886  85.2836709  90.7391900
  22.3013280  84.4658364  91.2019652  22.9423872  85.5004401  90.3016790
  22.4533051  84.2104894  88.0006948  22.9820817  83.6997348  87.3877110
  22.7161271  83.8947424  88.8652481  14.9258561  69.6438904  97.9609267
  14.9899887  70.5053735  97.5486665  14.8625681  69.0312905  97.2281626
  11.1776376  73.5238465  87.5400656  11.4729817  72.6149144  87.4867710
  10.2764412  73.5026205  87.2181659  23.0862455  85.2445729  94.3451065
  22.9613594  84.4435469  93.8362010  23.7441546  85.7391923  93.8565035
  14.7070623  71.5994462  93.5228205  13.9857209  72.2130430  93.3835678
  15.4963879  72.1352227  93.4444851  25.1497363  83.0454749  95.9730615
  24.2027699  82.9260101  95.9008941  25.4980136  82.1577248  96.0556876
  17.5096937  68.9348888  99.7968857  18.0331338  69.1811185 100.5595166
  17.2909270  69.7668923  99.3771994  12.9064218  71.2052563  87.6639981
  12.5776924  70.3249942  87.4815087  13.2603588  71.1500232  88.5516371
  22.1543797  82.8407466  92.1734967  22.0068759  81.9124173  92.3542537
  22.9797290  82.8627556  91.6892042  16.0206041  71.4925533  88.0315459
  16.3602113  72.0211454  87.3094068  16.4678161  71.8305939  88.8074026
  25.7577918  83.6636024  93.2599840  26.6824466  83.4578886  93.1224291
  25.5893222  83.4152426  94.1689181  18.7149482  69.8762584  97.4818527
  18.3746302  69.0770397  97.8839207  18.0088488  70.1764294  96.9095360
  19.3665953  66.9611896  95.9345850  20.1892023  66.4872374  95.8124741
  19.6104017  67.7402380  96.4344537  18.0074188  69.9900154  86.2308752
  18.7282550  70.3681407  85.7272469  17.3839492  70.7089031  86.3343730
  22.1505311  70.6945303  87.1667084  22.3668925  71.5769941  86.8655912
  21.6699378  70.3031517  86.4372726  16.8904532  73.6531017  93.7437829
  16.7449113  73.9671320  94.6362110  16.4129736  74.2715917  93.1908727
  18.7500915  70.6433565  93.7918718  18.7362484  69.7474658  93.4551016
  19.4673343  70.6504228  94.4257004  20.6027046  71.0770905  95.8371846
  20.3444824  71.9987975  95.8356176  20.0712086  70.6801339  96.5272310
  25.5473235  84.1821692  88.6161931  25.7210112  83.6168114  87.8635784
  26.0402126  84.9822587  88.4341421  18.1537811  69.5247945  89.0606289
  18.2753722  68.5964591  89.2597176  17.8639853  69.5386631  88.1484604
  21.0229001  67.2102855  92.1973008  21.0450698  67.2742188  91.2424988
  21.4397060  66.3707364  92.3913515  31.4012626  76.9458115  90.2352231
  31.8443772  76.1965440  89.8371354  30.5239136  76.9368251  89.8525963
  26.5348407  83.4988456  85.7158829  27.2299312  84.1195149  85.9346144
  26.8771557  82.6483808  85.9911207  28.4339830  80.9488162  87.2446160
  28.9591154  81.2875435  86.5195480  28.3462183  80.0135177  87.0609295
  20.1180491  87.0160145  91.6041413  19.6785481  86.5236524  92.2974270
  20.8688608  86.4733113  91.3633489  28.2431611  78.4313532  99.8630087
  28.2929616  78.2663539 100.8045610  28.1345535  77.5640791  99.4727968
  17.1267870  81.1102078  87.1522176  17.2755990  81.7937542  86.4988848
  17.9334313  81.0907168  87.6671631  25.5335374  74.4144460 101.1789393
  26.4345236  74.2750925 100.8873391  25.6083348  74.5798915 102.1187571
  19.8678179  71.7911315 100.0242580  18.9981488  72.0844881  99.7525168
  20.1037659  72.3751760 100.7449843  29.7449808  80.8510473 100.1072108
  29.4534616  81.2140454 100.9435569  29.1321939  80.1377482  99.9285440
  30.9445490  78.4163353  92.6274679  31.7792382  78.8553157  92.7912239
  31.0804619  77.9402006  91.8082924  27.9936996  75.9743088  98.5752166
  28.4691118  76.1670734  97.7671018  27.0702562  76.0302274  98.3295550
  14.8820503  77.1367255  88.1583245  14.6366545  76.2329585  88.3563455
  15.0516418  77.1384406  87.2162723  22.5717213  68.0090932  97.5408000
  23.0899157  68.7451958  97.2154489  22.2172346  68.3154925  98.3754759
  14.1516150  72.8695613  85.6569406  13.4585395  72.9439968  85.0009442
  13.9067902  72.1055956  86.1790923  22.8229807  64.4291214  93.0608897
  23.1031561  63.7614403  93.6869323  23.6080414  64.6220310  92.5483561
  20.6263276  83.6050208  84.6233923  20.0537243  84.2240395  84.1704395
  21.1996069  84.1549570  85.1573845  26.6938665  72.8508848  96.8080472
  27.6456088  72.9506946  96.8292696  26.5242116  72.0587117  97.3178556
  24.7153045  69.9364431  96.9939873  24.1202977  70.2169444  96.2986361
  24.4302742  70.4258332  97.7656614  23.8460535  83.8887358  85.7542505
  24.7791208  83.8232920  85.9575381  23.7583748  84.7243625  85.2957038
  26.4748552  83.2053228  82.7146453  26.3962183  82.8713092  83.6082211
  27.2958219  83.6974996  82.7137925  29.1726743  76.0714968  95.9222772
  29.1403063  75.1330968  96.1082455  29.7827367  76.1499004  95.1888596
  21.0110074  74.9411021  81.9649976  21.9569179  74.8117229  82.0338394
  20.6324319  74.2025683  82.4419404  29.3221232  72.8626011  95.9681055
  28.8060280  72.0784468  95.7810984  30.2061180  72.5344728  96.1327574
  26.9831959  66.6067027  91.9276867  26.7856780  66.2982115  92.8120199
  27.5931664  67.3328666  92.0574797  34.9903293  77.1330975  95.0628808
  35.7206681  76.8716263  95.6236512  34.3810238  76.3959697  95.1030876
  33.0718590  75.2738837  95.6603260  32.3451754  75.1394802  95.0519751
  32.6565877  75.5815666  96.4659978  19.1952991  72.8660997  81.9004861
  18.2884447  72.5694110  81.9767574  19.4728972  72.5690815  81.0339147
  20.8115057  67.4097887  88.0549102  20.0015785  67.0644972  88.4304348
  21.4999474  67.1005431  88.6436714  22.7405605  66.4875934  89.6773399
  23.2936644  66.9071387  90.3363422  22.9775692  65.5611682  89.7196355
  17.9651776  69.7247932  82.0416840  18.8270940  70.0502831  82.3012657
  18.1502120  68.9379428  81.5289906  26.1184412  68.5976459  89.1852063
  25.5383081  69.2561263  88.8030115  25.8520345  67.7753803  88.7739480
  24.5687979  67.9981517  91.3873383  25.0687757  68.1098051  90.5787702
  25.2123587  67.6942569  92.0274192  24.9009290  70.7576549  88.2408411
  24.0135145  71.0426200  88.0228606  25.3163279  70.5970313  87.3935688
  28.2523826  70.7823070  91.9562750  29.0284217  71.2719523  92.2287367
  27.5271961  71.2081124  92.4134620  30.6896385  71.4950689  93.0136691
  31.2840876  71.2546425  92.3029999  30.7622969  70.7757820  93.6410227
  24.0452504  80.5221224  82.3356431  24.7488354  80.7271226  82.9514087
  23.3215153  81.0897986  82.6005515  24.8750314  76.2731085  88.4558701
  24.8185515  76.7299637  87.6166334  25.4278656  75.5121770  88.2781544
  28.6855120  72.0620817  89.2808821  28.4292054  71.6617453  90.1117029
  28.0607988  72.7764611  89.1558960  32.9967458  74.8016890  91.7880112
  32.4367016  74.8710080  92.5611674  32.3910961  74.6257875  91.0679609
  25.9539201  80.9603753  84.3854891  26.7884805  80.5284952  84.2032366
  25.7923544  80.7885767  85.3131786  25.6085093  77.4635866  85.7511231
  25.5533897  77.2980138  84.8099675  24.9831149  78.1711899  85.9073420
  18.9181219  66.9643975  85.3296549  18.9059889  67.9085815  85.4864820
  19.8104641  66.7814121  85.0356010  22.7333338  63.5586752  89.5842486
  21.9665734  63.0045239  89.7299168  23.1444043  63.6308621  90.4456637
  34.5823476  91.4773404  94.4810068  35.2201886  91.3580152  93.7773408
  34.4644319  92.4254248  94.5398020  31.3913183  91.4300832  94.4171593
  31.0531694  91.3141897  93.5292128  32.2602951  91.0291997  94.3972599
  27.2499998  93.2836309  90.4068484  26.6864863  93.1926246  89.6384771
  27.1352393  92.4636213  90.8870976  32.8299557  96.9507276  85.7182949
  32.1787537  97.5361357  85.3316962  33.6243920  97.4813471  85.7777986
  26.7555184  94.0396414  86.1170083  27.5286060  93.4925401  85.9782959
  27.1080583  94.9040663  86.3284544  29.5196434  92.7449644  95.9138342
  30.1160006  92.5205667  95.1995305  29.5771405  92.0034390  96.5163790
  29.0921462  90.1989080  83.7488533  29.3446983  89.6770601  82.9871996
  28.1546021  90.0355225  83.8515216  34.1364745  89.2024858  91.5563276
  34.9227834  88.7844281  91.2053693  34.4003449  90.1070950  91.7244924
  34.3074822  94.6397708  86.2551933  33.6720655  94.7132335  86.9672838
  33.9772228  95.2291307  85.5771012  39.5373172  89.1400091  92.4596255
  40.2698344  88.5699308  92.6934084  38.7812528  88.7521692  92.9002760
  28.8117751  92.1017186  85.9512908  28.6954009  91.4262089  86.6193992
  28.9220011  91.6149560  85.1345061  31.1549292  91.5627333  89.6559597
  30.7907499  91.0357954  90.3672519  32.0116407  91.1725802  89.4826082
  37.0598592  82.8521665  96.9190863  36.7281917  83.7217076  96.6952078
  36.4644206  82.5357949  97.5984894  30.7954779  86.5917232  84.6520946
  30.9629181  87.4597469  85.0191417  30.6051948  86.7544514  83.7282235
  33.5530112  95.0534211  96.3186776  33.2530835  95.9559250  96.2102583
  33.2081171  94.7866395  97.1707929  27.0042593  91.5048008  92.3523480
  26.0793090  91.3724222  92.5601172  27.2527006  92.2842227  92.8493423
  36.9527256  87.5716752  93.9984213  36.0444133  87.5032160  93.7042974
  36.9014851  88.0488696  94.8266039  30.7743999  89.0474890  85.6367612
  30.6543625  89.4931941  86.4753093  30.0796588  89.3960208  85.0781151
  38.8188902  85.7733190  95.7762087  38.1763282  86.0665723  95.1301882
  38.3143830  85.6586110  96.5815284  36.4729066  89.5196363  86.4647946
  37.3846922  89.7523750  86.2895644  35.9638713  90.1033407  85.9023025
  34.7569833  93.9420991 100.1009239  35.1653189  93.5003401  99.3563871
  34.0347095  93.3673618 100.3543432  31.1100903  88.8793598  97.4742796
  31.9562099  89.3033011  97.6177445  31.0499541  88.2227222  98.1681359
  35.0798648  94.5022182  93.8561528  34.4507510  94.6667896  93.1537596
  34.6924310  94.9163791  94.6272492  38.9587880  95.4376619  91.2105892
  38.2738918  95.8175521  90.6602925  39.0431729  96.0471946  91.9437839
  34.2600349  86.5397966  99.1323970  34.0161281  87.2940027  98.5958245
  34.5360279  86.9183314  99.9671217  36.2138811  93.0836578  97.8101235
  36.4255707  93.7268338  97.1335616  36.1668560  92.2498895  97.3423165
  33.8165040  85.6954399  94.7137807  32.9549519  85.9935653  95.0054545
  33.8427475  85.9124798  93.7818840  30.6326610  94.2396590  91.1211613
  31.0964955  94.5184293  90.3316235  30.3683408  93.3380034  90.9384704
  27.5250691  93.7868071  94.0591376  28.0952048  94.2155340  93.4208861
  28.1158803  93.5050656  94.7575562  29.5695496  90.3619742  87.9301178
  30.2719539  90.8140786  88.3975104  29.2376124  89.7203561  88.5581071
  23.3120830  88.6203295  93.2318312  22.5219884  88.8760823  92.7558422
  23.8032077  89.4351633  93.3370352  37.3284639  95.9608534  95.9823593
  38.1502083  95.5588721  95.7006274  37.3247042  95.8576768  96.9339708
  25.2635575  88.9847874  90.1901788  24.4666738  89.0966568  90.7085284
  25.0361167  89.3234526  89.3242679  45.4190632  92.3047282  92.3308564
  44.6654341  91.7354680  92.1752568  45.5538174  92.2709947  93.2779199
  30.8089260  97.1760685  88.0063283  30.6734935  98.0212220  88.4348131
  31.3499073  97.3779962  87.2429217  24.2618658  94.6936123  88.5791208
  24.7743178  95.4879373  88.7296773  24.9141371  93.9962413  88.5124810
  26.0713543  97.8101879  90.6613962  26.2480171  98.7319844  90.4734946
  26.8670376  97.4960298  91.0908341  30.2124561  84.6710144 102.2597895
  30.9534274  85.2717297 102.1802358  30.4442484  83.9287781 101.7015938
  34.1581724  80.6991246  96.5362177  33.8145993  81.5892888  96.4601287
  34.5260687  80.5092904  95.6731762  22.2267575  93.0224777  89.3550779
  23.0642797  93.4321785  89.1384487  22.4045842  92.0824219  89.3250973
  34.1232007  90.6899858  85.0434612  33.6078630  91.4604462  85.2822999
  33.8509315  90.0164994  85.6667673  31.7079118  85.5349558  90.1019850
  30.8520714  85.1456409  89.9225489  32.1206070  85.6141519  89.2419636
  33.2378264  83.0695902  94.5011410  32.7343060  83.0326037  93.6879215
  33.5308871  83.9788644  94.5608067  29.4821150  83.1534631  93.5077592
  30.3474147  82.9577440  93.1483481  29.5498659  82.9244983  94.4346949
  39.0966281  93.4432212  86.9787785  38.3195724  93.1043372  86.5342947
  39.7757762  93.4484835  86.3042750  33.9118310  88.5626950  86.8694393
  33.6068445  88.8773099  87.7204536  34.8648752  88.6408370  86.9121726
  32.3564742  94.7217173  88.5187347  31.8286103  93.9869933  88.2060585
  31.8552244  95.4991849  88.2727315  37.3357588  92.9166194  93.6354393
  36.6781262  93.6065455  93.7234522  38.1397987  93.3062625  93.9788380
  27.0883469  85.3836839  90.8793959  27.6627221  85.1612021  90.1467152
  27.6754452  85.4525534  91.6322560  36.1463047  91.2710566  91.6858335
  36.6594928  91.9040558  92.1880045  36.7964270  90.6711762  91.3201695
  27.4153056  87.4141300  84.8989844  26.5790369  87.7515987  85.2199119
  27.2757826  87.2790280  83.9616981  29.3906137  82.2578088  89.6069028
  28.7370549  81.9427105  88.9825643  29.3486611  81.6353829  90.3328851
  30.5017342  92.5397383  81.5222320  29.5944404  92.3086637  81.7213469
  30.9988374  91.7435003  81.7096302  33.4085421 101.2494890  84.4419006
  32.7347120 101.5526587  85.0503964  33.7951243 102.0523971  84.0924463
  32.6243877  88.7460022  93.9316676  31.7066439  88.9674969  93.7738364
  33.0404021  88.8206332  93.0728383  33.4078925  90.1451437  89.0619356
  34.1550744  90.6572835  88.7526478  33.6770515  89.8235490  89.9223749
  31.6805575  92.6409978  86.0446310  30.7716795  92.3569011  86.1418780
  31.7100659  93.0609057  85.1849617  36.9124843  96.2516568  89.8137478
  36.4587170  95.4107478  89.8702668  36.2818810  96.8877966  90.1512258
  35.8557762  87.1808554  91.0438145  35.1180519  86.6685940  91.3748388
  36.1084536  86.7408935  90.2321422  35.3557782  98.0893064  90.7487296
  35.6480756  98.6498121  90.0299662  35.8656403  98.3821625  91.5040455
  35.9569390  79.9584806  91.6379914  36.2628266  79.0982169  91.3505830
  36.6821994  80.5502426  91.4378908  22.2493746  90.3615492  90.0261512
  22.0518146  89.7684853  89.3012579  21.6940410  90.0567702  90.7437451
  30.2290469  90.2538599  92.1456106  30.2839079  89.3012435  92.0698582
  29.4181671  90.4098038  92.6297404  31.3781663  94.1818722  83.3834389
  30.9401093  93.4654581  82.9240026  32.1192104  94.4094837  82.8219480
  28.1682829  88.8715658  89.9046484  27.3550695  89.1709829  90.3111677
  28.6641824  88.4771347  90.6220967  30.3191407  98.8673415  91.8380749
  30.2767586  99.0934262  90.9089281  31.2354106  98.6336790  91.9866550
  33.7657041  89.3357483  98.7361378  34.1206429  89.5628956  99.5955844
  34.4129172  89.6675860  98.1138634  39.4954778  92.4575919  89.4410707
  39.3572677  92.6477515  88.5131897  39.1390997  93.2195302  89.8978758
  27.6596904  86.4434014  95.5207719  28.2996283  86.3022773  94.8230683
  26.8274435  86.1568527  95.1446321  39.5224158  94.5252446  94.4521979
  39.9560664  94.4327735  95.3005033  40.2355738  94.5009946  93.8141995
  28.4357208  95.7436444  91.6342712  29.2297806  95.2486765  91.4325287
  27.7248900  95.2154308  91.2710417  33.2552052  98.1254540  95.9855079
  33.3089075  98.6945476  96.7532795  32.3866834  98.2956425  95.6209117
  24.7439971  89.8879526  87.7102465  23.8137560  89.8263982  87.9272427
  24.8397443  89.3655479  86.9139106  24.6625521  86.4134339  90.2980706
  24.9232338  87.3279672  90.1889867  25.4842693  85.9458782  90.4477319
  40.3839707  94.5676147  96.9854864  40.5775597  95.4721957  97.2314139
  40.2840325  94.1083566  97.8193449  32.0376018  84.4534037  99.4845192
  31.3903933  85.1523987  99.3909668  32.8077033  84.8870181  99.8521440
  32.2140152  92.2914802  97.5442011  33.1432212  92.4425962  97.3710979
  31.7931182  92.3798823  96.6890658  31.0128484  96.3165466  95.3140549
  30.8739570  95.9484251  96.1866487  30.2243080  96.8313106  95.1424507
  32.5633699  95.6947069  92.7029387  32.2283532  95.6547839  93.5987037
  32.0637645  95.0291785  92.2299797  35.4992891  93.0403103  82.9766446
  34.8822061  92.3149932  82.8799499  35.0309379  93.8012464  82.6333521
  27.2891437  87.2588528  82.0987751  26.4120903  87.1377329  81.7349997
  27.7649190  86.4674606  81.8466639  37.1564430  95.7141596  98.8686206
  36.2691208  95.3767518  98.9912605  37.7262981  94.9824627  99.1054972
  30.4755363  99.6114818  89.3450271  29.6922885 100.1536498  89.4388496
  31.1748108 100.1288798  89.7444512  33.7852013  85.4209448  91.9884477
  34.2820712  84.6679410  91.6685547  33.0138994  85.4573764  91.4227686
  41.6381770  91.1249813  93.6302768  41.6271647  92.0074529  93.2596701
  40.7699150  90.7721364  93.4357305  34.8681794  94.1781135  89.5622900
  33.9338072  94.2982597  89.3927604  35.0458462  93.2753602  89.2982910
  30.3686982  87.5626831  91.7156161  29.9984769  87.0097871  92.4037067
  30.8646074  86.9584964  91.1631161  38.2554345  90.0198454  90.0972934
  38.7214797  90.8526446  90.0233237  38.7061845  89.5543436  90.8018193
  36.3230576  96.3642275  87.0959086  36.5990420  96.2498870  88.0052960
  35.4535075  95.9659760  87.0571259  36.2271008  82.3879041  94.1363835
  35.3134087  82.6183268  94.3046042  36.6564109  82.4717485  94.9877868
  35.9977466  90.5768933  96.6363729  35.3448916  90.8244840  95.9816182
  36.3757846  89.7633071  96.3026207  32.9584640 100.6128626  90.7391900
  33.1407035  99.7950282  91.2019652  33.7817626 100.8296318  90.3016790
  33.2926806  99.5396811  88.0006948  33.8214572  99.0289266  87.3877110
  33.5555025  99.2239342  88.8652481  25.7652315  84.9730821  97.9609267
  25.8293642  85.8345652  97.5486665  25.7019436  84.3604823  97.2281626
  22.0170131  88.8530383  87.5400656  22.3123572  87.9441061  87.4867710
  21.1158166  88.8318122  87.2181659  33.9256209 100.5737647  94.3451065
  33.8007349  99.7727387  93.8362010  34.5835300 101.0683840  93.8565035
  25.5464378  86.9286380  93.5228205  24.8250963  87.5422347  93.3835678
  26.3357633  87.4644144  93.4444851  35.9891118  98.3746667  95.9730615
  35.0421453  98.2552018  95.9008941  36.3373891  97.4869165  96.0556876
  28.3490691  84.2640806  99.7968857  28.8725093  84.5103103 100.5595166
  28.1303024  85.0960841  99.3771994  23.7457972  86.5344481  87.6639981
  23.4170678  85.6541860  87.4815087  24.0997343  86.4792149  88.5516371
  32.9937551  98.1699383  92.1734967  32.8462513  97.2416091  92.3542537
  33.8191045  98.1919474  91.6892042  26.8599795  86.8217450  88.0315459
  27.1995868  87.3503372  87.3094068  27.3071916  87.1597857  88.8074026
  36.5971673  98.9927942  93.2599840  37.5218220  98.7870803  93.1224291
  36.4286976  98.7444343  94.1689181  29.5543236  85.2054501  97.4818527
  29.2140056  84.4062314  97.8839207  28.8482242  85.5056212  96.9095360
  30.2059708  82.2903814  95.9345850  31.0285777  81.8164292  95.8124741
  30.4497771  83.0694297  96.4344537  28.8467942  85.3192072  86.2308752
  29.5676305  85.6973325  85.7272469  28.2233247  86.0380949  86.3343730
  32.9899065  86.0237221  87.1667084  33.2062680  86.9061859  86.8655912
  32.5093132  85.6323434  86.4372726  27.7298287  88.9822934  93.7437829
  27.5842867  89.2963237  94.6362110  27.2523490  89.6007835  93.1908727
  29.5894670  85.9725482  93.7918718  29.5756238  85.0766576  93.4551016
  30.3067098  85.9796146  94.4257004  31.4420800  86.4062822  95.8371846
  31.1838578  87.3279893  95.8356176  30.9105841  86.0093257  96.5272310
  36.3866989  99.5113610  88.6161931  36.5603867  98.9460032  87.8635784
  36.8795880 100.3114504  88.4341421  28.9931566  84.8539863  89.0606289
  29.1147477  83.9256509  89.2597176  28.7033608  84.8678548  88.1484604
  31.8622756  82.5394773  92.1973008  31.8844453  82.6034106  91.2424988
  32.2790815  81.6999282  92.3913515  42.2406380  92.2750033  90.2352231
  42.6837526  91.5257358  89.8371354  41.3632891  92.2660169  89.8525963
  37.3742162  98.8280374  85.7158829  38.0693066  99.4487067  85.9346144
  37.7165312  97.9775725  85.9911207  39.2733585  96.2780079  87.2446160
  39.7984909  96.6167352  86.5195480  39.1855937  95.3427095  87.0609295
  27.9661624  96.4393995  87.1522176  28.1149745  97.1229460  86.4988848
  28.7728068  96.4199085  87.6671631  36.3729128  89.7436378 101.1789393
  37.2738991  89.6042842 100.8873391  36.4477103  89.9090832 102.1187571
  30.7071933  87.1203232 100.0242580  29.8375243  87.4136798  99.7525168
  30.9431414  87.7043677 100.7449843  41.7839245  93.7455271  92.6274679
  42.6186136  94.1845075  92.7912239  41.9198374  93.2693924  91.8082924
  38.8330751  91.3035006  98.5752166  39.3084872  91.4962652  97.7671018
  37.9096316  91.3594191  98.3295550  25.7214257  92.4659173  88.1583245
  25.4760299  91.5621503  88.3563455  25.8910172  92.4676323  87.2162723
  33.4110967  83.3382849  97.5408000  33.9292911  84.0743876  97.2154489
  33.0566100  83.6446843  98.3754759  24.9909905  88.1987530  85.6569406
  24.2979150  88.2731885  85.0009442  24.7461657  87.4347874  86.1790923
  33.6623561  79.7583132  93.0608897  33.9425315  79.0906321  93.6869323
  34.4474168  79.9512227  92.5483561  31.4657030  98.9342126  84.6233923
  30.8930997  99.5532313  84.1704395  32.0389824  99.4841487  85.1573845
  37.5332420  88.1800766  96.8080472  38.4849843  88.2798863  96.8292696
  37.3635870  87.3879034  97.3178556  35.5546799  85.2656349  96.9939873
  34.9596731  85.5461362  96.2986361  35.2696496  85.7550250  97.7656614
  34.6854290  99.2179276  85.7542505  35.6184963  99.1524837  85.9575381
  34.5977503 100.0535543  85.2957038  37.3142306  98.5345146  82.7146453
  37.2355938  98.2005010  83.6082211  38.1351973  99.0266914  82.7137925
  40.0120498  91.4006885  95.9222772  39.9796818  90.4622886  96.1082455
  40.6221121  91.4790922  95.1888596  31.8503828  90.2702938  81.9649976
  32.7962933  90.1409147  82.0338394  31.4718073  89.5317600  82.4419404
  40.1614986  88.1917929  95.9681055  39.6454035  87.4076385  95.7810984
  41.0454935  87.8636645  96.1327574  37.8225713  81.9358944  91.9276867
  37.6250534  81.6274033  92.8120199  38.4325419  82.6620583  92.0574797
  45.8297047  92.4622892  95.0628808  46.5600436  92.2008180  95.6236512
  45.2203993  91.7251614  95.1030876  43.9112345  90.6030755  95.6603260
  43.1845508  90.4686720  95.0519751  43.4959631  90.9107583  96.4659978
  30.0346746  88.1952915  81.9004861  29.1278201  87.8986028  81.9767574
  30.3122727  87.8982733  81.0339147  31.6508811  82.7389805  88.0549102
  30.8409540  82.3936889  88.4304348  32.3393228  82.4297348  88.6436714
  33.5799360  81.8167851  89.6773399  34.1330398  82.2363305  90.3363422
  33.8169446  80.8903599  89.7196355  28.8045530  85.0539850  82.0416840
  29.6664694  85.3794748  82.3012657  28.9895874  84.2671346  81.5289906
  36.9578167  83.9268376  89.1852063  36.3776836  84.5853180  88.8030115
  36.6914099  83.1045721  88.7739480  35.4081733  83.3273434  91.3873383
  35.9081511  83.4389969  90.5787702  36.0517341  83.0234487  92.0274192
  35.7403045  86.0868467  88.2408411  34.8528900  86.3718117  88.0228606
  36.1557034  85.9262230  87.3935688  39.0917581  86.1114988  91.9562750
  39.8677971  86.6011440  92.2287367  38.3665715  86.5373042  92.4134620
  41.5290140  86.8242607  93.0136691  42.1234630  86.5838343  92.3029999
  41.6016723  86.1049738  93.6410227  34.8846258  95.8513142  82.3356431
  35.5882108  96.0563144  82.9514087  34.1608907  96.4189903  82.6005515
  35.7144069  91.6023003  88.4558701  35.6579270  92.0591554  87.6166334
  36.2672411  90.8413687  88.2781544  39.5248874  87.3912735  89.2808821
  39.2685809  86.9909370  90.1117029  38.9001742  88.1056529  89.1558960
  43.8361212  90.1308808  91.7880112  43.2760770  90.2001997  92.5611674
  43.2304716  89.9549793  91.0679609  36.7932956  96.2895671  84.3854891
  37.6278560  95.8576869  84.2032366  36.6317299  96.1177684  85.3131786
  36.4478848  92.7927784  85.7511231  36.3927652  92.6272055  84.8099675
  35.8224903  93.5003817  85.9073420  29.7574973  82.2935893  85.3296549
  29.7453643  83.2377733  85.4864820  30.6498395  82.1106038  85.0356010
  33.5727093  78.8878670  89.5842486  32.8059489  78.3337156  89.7299168
  33.9837798  78.9600538  90.4456637  41.6348533 101.9209150  84.6520946
  41.8022935 102.7889386  85.0191417  41.4445702 102.0836432  83.7282235
  41.6137754 104.3766808  85.6367612  41.4937379 104.8223858  86.4753093
  40.9190342 104.7252125  85.0781151  47.3122820 104.8488281  86.4647946
  48.2240676 105.0815668  86.2895644  46.8032467 105.4325325  85.9023025
  42.5472872 100.8641476  90.1019850  41.6914469 100.4748326  89.9225489
  42.9599824 100.9433437  89.2419636  44.0772019  98.3987819  94.5011410
  43.5736814  98.3617954  93.6879215  44.3702626  99.3080562  94.5608067
  40.3214905  98.4826549  93.5077592  41.1867902  98.2869358  93.1483481
  40.3892414  98.2536901  94.4346949  44.7512064 103.8918867  86.8694393
  44.4462200 104.2065017  87.7204536  45.7042507 103.9700287  86.9121726
  37.9277224 100.7128757  90.8793959  38.5020976 100.4903938  90.1467152
  38.5148206 100.7817451  91.6322560  38.2546811 102.7433218  84.8989844
  37.4184123 103.0807905  85.2199119  38.1151581 102.6082198  83.9616981
  40.2299892  97.5870006  89.6069028  39.5764304  97.2719023  88.9825643
  40.1880366  96.9645746  90.3328851  44.2472680 105.4743355  89.0619356
  44.9944499 105.9864752  88.7526478  44.5164269 105.1527408  89.9223749
  46.6951517 102.5100471  91.0438145  45.9574274 101.9977858  91.3748388
  46.9478290 102.0700853  90.2321422  46.7963144  95.2876723  91.6379914
  47.1022021  94.4274087  91.3505830  47.5215749  95.8794344  91.4378908
  38.4990659 101.7725932  95.5207719  39.1390038 101.6314691  94.8230683
  37.6668189 101.4860445  95.1446321  35.5019275 101.7426257  90.2980706
  35.7626092 102.6571590  90.1889867  36.3236447 101.2750699  90.4477319
  38.1285191 102.5880445  82.0987751  37.2514658 102.4669246  81.7349997
  38.6042944 101.7966524  81.8466639  44.6245767 100.7501365  91.9884477
  45.1214467  99.9971328  91.6685547  43.8532749 100.7865682  91.4227686
  41.2080736 102.8918748  91.7156161  40.8378524 102.3389789  92.4037067
  41.7039829 102.2876882  91.1631161  36.3858132 102.2578297  93.5228205
  35.6644718 102.8714265  93.3835678  37.1751388 102.7936062  93.4444851
  34.5851727 101.8636398  87.6639981  34.2564433 100.9833777  87.4815087
  34.9391097 101.8084067  88.5516371  37.6993550 102.1509368  88.0315459
  38.0389622 102.6795289  87.3094068  38.1465670 102.4889774  88.8074026
  41.0453462  97.6195731  95.9345850  41.8679532  97.1456209  95.8124741
  41.2891526  98.3986215  96.4344537  39.6861697 100.6483990  86.2308752
  40.4070059 101.0265243  85.7272469  39.0627001 101.3672867  86.3343730
  43.8292820 101.3529139  87.1667084  44.0456434 102.2353777  86.8655912
  43.3486887 100.9615352  86.4372726  40.4288424 101.3017400  93.7918718
  40.4149993 100.4058493  93.4551016  41.1460852 101.3088064  94.4257004
  39.8325320 100.1831780  89.0606289  39.9541231  99.2548426  89.2597176
  39.5427362 100.1970466  88.1484604  42.7016510  97.8686691  92.1973008
  42.7238207  97.9326024  91.2424988  43.1184569  97.0291199  92.3913515
  44.5017316  95.0875049  93.0608897  44.7819070  94.4198238  93.6869323
  45.2867923  95.2804145  92.5483561  48.6619468  97.2650862  91.9276867
  48.4644289  96.9565950  92.8120199  49.2719173  97.9912501  92.0574797
  40.8740500 103.5244832  81.9004861  39.9671956 103.2277945  81.9767574
  41.1516481 103.2274651  81.0339147  42.4902566  98.0681722  88.0549102
  41.6803294  97.7228807  88.4304348  43.1786983  97.7589266  88.6436714
  44.4193114  97.1459769  89.6773399  44.9724153  97.5655222  90.3363422
  44.6563201  96.2195517  89.7196355  39.6439285 100.3831768  82.0416840
  40.5058449 100.7086666  82.3012657  39.8289629  99.5963264  81.5289906
  47.7971921  99.2560294  89.1852063  47.2170590  99.9145098  88.8030115
  47.5307854  98.4337639  88.7739480  46.2475488  98.6565352  91.3873383
  46.7475266  98.7681886  90.5787702  46.8911096  98.3526405  92.0274192
  46.5796799 101.4160385  88.2408411  45.6922654 101.7010035  88.0228606
  46.9950788 101.2554148  87.3935688  50.3642629 102.7204652  89.2808821
  50.1079563 102.3201288  90.1117029  49.7395497 103.4348446  89.1558960
  40.5968728  97.6227811  85.3296549  40.5847398  98.5669651  85.4864820
  41.4892150  97.4397956  85.0356010  44.4120847  94.2170587  89.5842486
  43.6453243  93.6629074  89.7299168  44.8231552  94.2892456  90.4456637
   1.7893560  25.6584078  72.9797240   1.1539393  25.7318704  73.6918144
   1.4590966  26.2477677  72.3016319   3.9547803  20.5382733  73.1893253
   4.8665659  20.7710119  73.0140951   3.4457450  21.1219777  72.6268332
   6.4406618  26.4562989  77.9351198   5.7557656  26.8361890  77.3848232
   6.5250467  27.0658316  78.6683146  12.9009370  23.3233652  79.0553871
  12.1473079  22.7541050  78.8997875  13.0356911  23.2896316  80.0024505
   1.6050745  21.7086227  71.7679919   1.0897368  22.4790832  72.0068306
   1.3328053  21.0351363  72.3912980   6.5785019  24.4618582  73.7033092
   5.8014461  24.1229741  73.2588254   7.2576500  24.4671205  73.0288057
   1.3937048  19.5813319  73.5939700   1.0887183  19.8959468  74.4449843
   2.3467490  19.6594739  73.6367033   4.8176326  23.9352563  80.3599700
   4.1600000  24.6251824  80.4479829   5.6216725  24.3248995  80.7033686
   3.6281784  22.2896936  78.4103642   4.1413666  22.9226928  78.9125351
   4.2783008  21.6898131  78.0447002   0.8897663  21.1637807  75.7864663
   1.6369482  21.6759204  75.4771785   1.1589253  20.8421860  76.6469056
   4.3943581  27.2702937  76.5382784   3.9405908  26.4293847  76.5947975
   3.7637547  27.9064336  76.8757565   2.8376520  29.1079434  77.4732603
   3.1299494  29.6684491  76.7544968   3.3475140  29.4007995  78.2285762
   6.9773516  23.4762288  76.1656014   6.8391414  23.6663884  75.2377203
   6.6209735  24.2381671  76.6224065   7.0042895  25.5438815  81.1767285
   7.4379402  25.4514105  82.0250340   7.7174476  25.5196316  80.5387301
   2.9811629  24.0589473  69.7011753   2.3640799  23.3336301  69.6044806
   2.5128117  24.8198833  69.3578827   9.1200508  22.1436183  80.3548075
   9.1090384  23.0260898  79.9842008   8.2517887  21.7907734  80.1602612
   2.3500531  25.1967504  76.2868207   1.4156810  25.3168967  76.1172911
   2.5277200  24.2939971  76.0228216   5.7373083  21.0384824  76.8218241
   6.2033535  21.8712815  76.7478543   6.1880583  20.5729805  77.5263499
   3.8049314  27.3828645  73.8204393   4.0809158  27.2685240  74.7298267
   2.9353813  26.9846130  73.7816566   0.7745543  30.5583181  74.7252255
   1.3033310  30.0475636  74.1122417   1.0373763  30.2425711  75.5897788
   1.4074947  31.5924017  81.0696371   1.2826087  30.7913756  80.5607317
   2.0654038  32.0870210  80.5810341   3.4709855  29.3933037  82.6975921
   2.5240191  29.2738388  82.6254248   3.8192629  28.5055535  82.7802183
   4.0790411  30.0114312  79.9845146   5.0036958  29.8057173  79.8469598
   3.9105714  29.7630713  80.8934488   3.8685727  30.5299979  75.3407238
   4.0422604  29.9646402  74.5881090   4.3614618  31.3300874  75.1586728
   9.7225118  23.2936402  76.9597538  10.1656264  22.5443727  76.5616661
   8.8451628  23.2846538  76.5771270   4.8560899  29.8466744  72.4404136
   5.5511804  30.4673436  72.6591451   5.1984049  28.9962095  72.7156514
   6.7552322  27.2966449  73.9691467   7.2803647  27.6353722  73.2440787
   6.6674675  26.3613464  73.7854602   9.2657983  24.7641640  79.3519985
  10.1004874  25.2031444  79.5157546   9.4017112  24.2880294  78.5328231
   2.1673028  30.2365645  72.4787812   3.1003701  30.1711207  72.6820688
   2.0796240  31.0721912  72.0202345   4.7961044  29.5531516  69.4391760
   4.7174676  29.2191379  70.3327517   5.6170711  30.0453284  69.4383232
  13.3115785  23.4809262  81.7874115  14.0419174  23.2194550  82.3481818
  12.7022731  22.7437984  81.8276183   3.2221783  17.1054836  74.9653718
   2.3347638  17.3904487  74.7473913   3.6375772  16.9448600  74.1180995
   2.3664996  26.8699511  69.0601738   3.0700846  27.0749514  69.6759393
   1.6427645  27.4376273  69.3250821   3.1962806  22.6209372  75.1804008
   3.1398008  23.0777924  74.3411640   3.7491149  21.8600057  75.0026851
   7.0067612  18.4099104  76.0054128   6.7504546  18.0095740  76.8362335
   6.3820480  19.1242898  75.8804267  11.3179950  21.1495177  78.5125419
  10.7579508  21.2188367  79.2856981  10.7123453  20.9736162  77.7924915
   4.2751693  27.3082040  71.1100198   5.1097297  26.8763239  70.9277673
   4.1136036  27.1364054  72.0377092   3.9297586  23.8114154  72.4756537
   3.8746389  23.6458425  71.5344981   3.3043641  24.5190187  72.6318727
  12.9035969  37.8251691  81.2055375  13.5414378  37.7058439  80.5018715
  12.7856811  38.7732535  81.2643327   9.7125675  37.7779120  81.1416899
   9.3744186  37.6620184  80.2537434  10.5815443  37.3770285  81.1217905
   5.5712490  39.6314596  77.1313790   5.0077356  39.5404533  76.3630078
   5.4564886  38.8114500  77.6116283  10.1945458  38.9313971  87.1003105
  10.1834099  38.5366770  86.2283609  10.3566097  38.1980044  87.6936876
   3.1176922  41.1265788  79.9698011   3.9098214  40.7856612  79.5544310
   3.3573573  41.2360763  80.8900164  11.1512049  43.2985564  72.4428255
  10.5000029  43.8839644  72.0562269  11.9456412  43.8291759  72.5023293
   5.0767676  40.3874701  72.8415390   5.8498552  39.8403688  72.7028265
   5.4293075  41.2518950  73.0529851   6.9152719  41.7151083  86.0482289
   6.6242585  42.6196714  85.9328955   7.5509703  41.7567611  86.7626358
   7.8408926  39.0927932  82.6383649   8.4372498  38.8683954  81.9240611
   7.8983897  38.3512677  83.2409096   7.4133954  36.5467367  70.4733839
   7.6659475  36.0248888  69.7117302   6.4758513  36.3833512  70.5760523
  12.4577237  35.5503145  78.2808583  13.2440326  35.1322568  77.9299000
  12.7215941  36.4549237  78.4490231  12.6287314  40.9875996  72.9797240
  11.9933147  41.0610622  73.6918144  12.2984721  41.5769594  72.3016319
  17.8585664  35.4878378  79.1841561  18.5910836  34.9177595  79.4179391
  17.1025020  35.0999979  79.6248067   7.1330243  38.4495473  72.6758214
   7.0166501  37.7740376  73.3439299   7.2432503  37.9627847  71.8590367
   9.4761784  37.9105620  76.3804904   9.1119991  37.3836241  77.0917825
  10.3328900  37.5204089  76.2071389  15.3811084  29.1999953  83.6436170
  15.0494409  30.0695364  83.4197385  14.7856698  28.8836237  84.3230200
   9.1167271  32.9395520  71.3766252   9.2841673  33.8075756  71.7436723
   8.9264440  33.1022801  70.4527541  11.8742604  41.4012499  83.0432083
  11.5743327  42.3037537  82.9347890  11.5293664  41.1344682  83.8953235
   5.3255085  37.8526295  79.0768787   4.4005582  37.7202509  79.2846479
   5.5739499  38.6320515  79.5738729  15.2739748  33.9195039  80.7229520
  14.3656625  33.8510447  80.4288281  15.2227344  34.3966984  81.5511345
   9.0956492  35.3953177  72.3612919   8.9756117  35.8410228  73.1998399
   8.4009080  35.7438495  71.8026457   2.6863897  37.4959569  79.9112576
   2.8156278  37.7494048  80.8251988   2.0061348  38.0887277  79.5917231
   6.8563384  48.1656819  76.0103050   6.7787414  49.1164644  76.0891531
   6.2525027  47.8202691  76.6677977   9.3480614  35.3384684  88.6664417
   8.5713948  35.8978604  88.6567282   9.9871177  35.8241467  89.1879287
  17.1401394  32.1211477  82.5007394  16.4975774  32.4144010  81.8547188
  16.6356323  32.0064397  83.3060590  14.7941558  35.8674650  73.1893253
  15.7059414  36.1002037  73.0140951  14.2851205  36.4511695  72.6268332
   7.6026986  38.1470138  88.2282384   8.3441670  38.6855182  87.9517208
   6.8963971  38.7736426  88.3853936  13.0782326  40.2899278  86.8254546
  13.4865682  39.8481689  86.0809178  12.3559587  39.7151906  87.0788739
   9.4313396  35.2271885  84.1988103  10.2774591  35.6511298  84.3422752
   9.3712033  34.5705509  84.8926666  13.4011140  40.8500469  80.5806835
  12.7720003  41.0146183  79.8782902  13.0136802  41.2642078  81.3517799
  17.2800372  41.7854907  77.9351198  16.5951410  42.1653808  77.3848232
  17.3644221  42.3950233  78.6683146  12.5812841  32.8876253  85.8569276
  12.3373773  33.6418314  85.3203552  12.8572771  33.2661601  86.6916523
  14.5351304  39.4314866  84.5346542  14.7468199  40.0746626  83.8580923
  14.4881052  38.5977182  84.0668472  12.1377533  32.0432686  81.4383114
  11.2762012  32.3413940  81.7299852  12.1639967  32.2603085  80.5064147
   8.9539102  40.5874877  77.8456920   9.4177448  40.8662580  77.0561542
   8.6895900  39.6858321  77.6630010   5.8463183  40.1346358  80.7836683
   6.4164540  40.5633627  80.1454167   6.4371295  39.8528943  81.4820869
   7.8907988  36.7098029  74.6546485   8.5932031  37.1619073  75.1220411
   7.5588617  36.0681848  75.2826378   1.6333322  34.9681582  79.9563618
   0.8432376  35.2239110  79.4803729   2.1244569  35.7829920  80.0615659
  15.6497132  42.3086821  82.7068899  16.4714575  41.9067008  82.4251581
  15.6459534  42.2055055  83.6585015   3.5848067  35.3326161  76.9147095
   2.7879231  35.4444855  77.4330591   3.3573660  35.6712813  76.0487986
   9.4153735  41.8570864  84.8629610   9.4798168  42.3191272  85.6987781
   8.7064659  41.2268229  84.9911920  23.7403125  38.6525570  79.0553871
  22.9866833  38.0832968  78.8997875  23.8750666  38.6188234  80.0024505
   9.1301753  43.5238972  74.7308590   8.9947428  44.3690508  75.1593438
   9.6711565  43.7258249  73.9674524   2.5831150  41.0414410  75.3036515
   3.0955671  41.8357660  75.4542080   3.2353863  40.3440700  75.2370117
   4.3926035  44.1580166  77.3859268   4.5692663  45.0798131  77.1980252
   5.1882868  43.8438585  77.8153648  10.7570229  44.1462538  88.8608932
  10.3134083  43.3598917  88.5429837  11.4187443  44.3341689  88.1952823
   5.5157350  45.6758340  83.3869611   6.0664775  45.5475403  82.6146605
   4.6768826  45.9753229  83.0364503  12.8551467  44.4265338  86.8890333
  12.8369943  45.2474219  86.3970603  13.7771387  44.3019414  87.1140474
   9.3124521  41.9409468  87.7313842   9.8452858  41.1797756  87.5013150
   8.7838602  41.6483120  88.4737996  12.4794216  27.0469534  83.2607483
  12.1358486  27.9371175  83.1846594  12.8473179  26.8571191  82.3977068
   0.5480067  39.3703064  76.0796086   1.3855289  39.7800073  75.8629793
   0.7258335  38.4302506  76.0496279  12.4444499  37.0378145  71.7679919
  11.9291122  37.8082749  72.0068306  12.1721807  36.3643281  72.3912980
  10.0291610  31.8827846  76.8265157   9.1733206  31.4934696  76.6470796
  10.4418562  31.9619806  75.9664942  11.5590757  29.4174189  81.2256717
  11.0555552  29.3804324  80.4124522  11.8521364  30.3266932  81.2853373
   7.8033643  29.5012919  80.2322898   8.6686639  29.3055727  79.8728788
   7.8711151  29.2723270  81.1592255  17.4178773  39.7910499  73.7033092
  16.6408216  39.4521659  73.2588254  18.0970254  39.7963123  73.0288057
  12.2330802  34.9105237  73.5939700  11.9280938  35.2251386  74.4449843
  13.1861244  34.9886657  73.6367033  10.6777234  41.0695460  75.2432654
  10.1498596  40.3348220  74.9305891  10.1764737  41.8470137  74.9972622
  15.6570080  39.2644481  80.3599700  14.9993754  39.9543742  80.4479829
  16.4610479  39.6540913  80.7033686   5.4095962  31.7315127  77.6039265
   5.9839714  31.5090308  76.8712458   5.9966944  31.8003821  78.3567867
  14.4675539  37.6188853  78.4103642  14.9807421  38.2518845  78.9125351
  15.1176763  37.0190049  78.0447002   5.7365549  33.7619588  71.6235151
   4.9002861  34.0994274  71.9444425   5.5970318  33.6268567  70.6862287
   7.7118629  28.6056375  76.3314335   7.0583042  28.2905393  75.7070949
   7.6699103  27.9832116  77.0574158   8.8229834  38.8875671  68.2467627
   7.9156896  38.6564924  68.4458776   9.3200866  38.0913290  68.4341608
  11.7297913  47.5973178  71.1664313  11.0559612  47.9004874  71.7749271
  12.1163735  48.4002258  70.8169770  10.9456370  35.0938309  80.6561982
  10.0278931  35.3153256  80.4983670  11.3616513  35.1684619  79.7973690
  11.7291417  36.4929725  75.7864663  12.4763236  37.0051122  75.4771785
  11.9983007  36.1713777  76.6469056  10.0018068  38.9888265  72.7691617
   9.0929287  38.7047298  72.8664087  10.0313151  39.4087344  71.9094924
  15.2337335  42.5994855  76.5382784  14.7799662  41.7585765  76.5947975
  14.6031302  43.2356253  76.8757565  14.1770255  33.5286841  77.7683452
  13.4393011  33.0164227  78.0993694  14.4297028  33.0887223  76.9566729
  13.6770274  44.4371352  77.4732603  13.9693249  44.9976409  76.7544968
  14.1868895  44.7299913  78.2285762  14.2781882  26.3063093  78.3625221
  14.5840759  25.4460456  78.0751136  15.0034487  26.8980713  78.1624215
   9.6994155  40.5297009  70.1079695   9.2613585  39.8132868  69.6485333
  10.4404596  40.7573124  69.5464787   6.4895322  35.2193946  76.6291791
   5.6763187  35.5188116  77.0356983   6.9854316  34.8249635  77.3466273
   8.6403899  45.2151703  78.5626056   8.5980078  45.4412549  77.6334588
   9.5566598  44.9815077  78.7111857  12.0869533  35.6835770  85.4606685
  12.4418921  35.9107243  86.3201151  12.7341665  36.0154147  84.8383940
  17.8167270  38.8054206  76.1656014  17.6785169  38.9955802  75.2377203
  17.4603489  39.5673589  76.6224065   5.9809396  32.7912301  82.2453026
   6.6208776  32.6501060  81.5475989   5.1486927  32.5046815  81.8691628
  17.8436650  40.8730733  81.1767285  18.2773157  40.7806022  82.0250340
  18.5568231  40.8488234  80.5387301   6.7569700  42.0914732  78.3588018
   7.5510299  41.5965052  78.1570593   6.0461393  41.5632595  77.9955724
  11.5764545  44.4732827  82.7100386  11.6301567  45.0423764  83.4778102
  10.7079326  44.6434712  82.3454423   3.0652464  36.2357813  74.4347771
   2.1350052  36.1742269  74.6517733   3.1609936  35.7133766  73.6384412
   2.9838013  32.7612626  77.0226013   3.2444830  33.6757959  76.9135173
   3.8055185  32.2937069  77.1722626   4.4562938  34.1750383  84.1924837
   5.1285992  33.9667746  83.5437486   3.6292725  33.9772469  83.7530070
  18.7052199  40.9154434  83.7100171  18.8988089  41.8200244  83.9559446
  18.6052818  40.4561853  84.5438756  10.3588510  30.8012324  86.2090498
   9.7116425  31.5002274  86.1154975  11.1289526  31.2348468  86.5766746
  13.7667308  41.0661177  89.2841051  13.6152814  40.8371728  88.3671135
  13.7571988  42.0231778  89.2972397  10.5352644  38.6393089  84.2687318
  11.4644704  38.7904249  84.0956285  10.1143675  38.7277110  83.4135964
   9.3340976  42.6643754  82.0385856   9.1952062  42.2962538  82.9111794
   8.5455573  43.1791393  81.8669813   9.9289128  47.7652850  73.3811392
  10.1040884  47.2940893  74.1957015   9.2421916  48.3918616  73.6092653
  10.8846191  42.0425356  79.4274693  10.5496024  42.0026126  80.3232343
  10.3850137  41.3770072  78.9545104   4.8590435  37.4492986  84.9527275
   4.7210233  36.7173225  85.5538814   5.7695359  37.3601886  84.6711462
  13.8205383  39.3881391  69.7011753  13.2034554  38.6628219  69.6044806
  13.3521872  40.1490751  69.3578827   7.4872736  37.1612946  84.4410954
   8.1972355  36.5206138  84.3997573   7.4442044  37.4125841  85.3637135
  15.4759515  44.0980299  87.3617533  15.4172061  43.4139519  86.6948116
  15.8779033  44.8399289  86.9098159   6.2001670  34.1478164  86.2606594
   5.6639027  33.6968902  86.9128190   5.6118378  34.2824072  85.5177058
   4.4950214  50.9142213  80.1551252   4.7346812  51.5460737  80.8330271
   3.6519410  50.5630253  80.4416612   5.6103929  33.6066815  68.8233057
   4.7333395  33.4855616  68.4595304   6.0861682  32.8152893  68.5711946
  15.4776922  42.0619883  85.5931513  14.5903701  41.7245805  85.7157912
  16.0475473  41.3302914  85.8300278   1.9340791  33.2834171  83.3459588
   1.8498980  32.6759841  82.6109998   1.1123498  33.7743190  83.3469084
   9.0078075  46.7221335  82.5592756   8.9348247  47.5276307  83.0712061
   8.5655468  46.9213301  81.7340778   8.7967855  45.9593105  76.0695578
   8.0135377  46.5014786  76.1633802   9.4960600  46.4767085  76.4689819
  12.1064505  31.7687735  78.7129783  12.6033205  31.0157697  78.3930853
  11.3351487  31.8052051  78.1472993  19.9594263  37.4728100  80.3548075
  19.9484139  38.3552816  79.9842008  19.0911642  37.1199651  80.1602612
  11.4676759  46.6208169  84.7150915  12.1804731  47.2555634  84.6426816
  10.9766788  46.7172035  83.8990917  13.1894286  40.5259422  76.2868207
  12.2550565  40.6460885  76.1172911  13.3670954  39.6231889  76.0228216
   8.6899474  33.9105118  78.4401468   8.3197261  33.3576158  79.1282373
   9.1858566  33.3063251  77.8876468  16.5766837  36.3676741  76.8218241
  17.0427289  37.2004733  76.7478543  17.0274338  35.9021723  77.5263499
   6.5188672  44.3702613  85.5356486   7.2198132  45.0039096  85.6885880
   6.0483787  44.7117344  84.7752125  14.6443068  42.7120563  73.8204393
  14.9202912  42.5977157  74.7298267  13.7747567  42.3138047  73.7816566
  14.5483500  28.7357328  80.8609142  13.6346580  28.9661555  81.0291349
  14.9776601  28.8195772  81.7123174  14.3189958  36.9247220  83.3609036
  13.6661409  37.1723128  82.7061489  14.6970338  36.1111358  83.0271513
  11.2797132  46.9606913  77.4637206  11.4619527  46.1428569  77.9264959
  12.1030118  47.1774606  77.0262096  11.6139298  45.8875099  74.7252255
  12.1427064  45.3767553  74.1122417  11.8767517  45.5717629  75.5897788
  10.3677531  37.6667031  89.8475073   9.6918168  37.5661161  90.5177448
  11.1905165  37.5106245  90.3111070   2.1156391  43.9038968  82.4687588
   2.7009827  43.1582656  82.6015493   1.9181229  44.2142925  83.3524252
   4.9695046  46.9390215  77.4850031   4.3005421  47.4236343  77.0014071
   4.8307915  47.1859436  78.3993409   9.1100314  48.9733959  84.0832689
   9.6618622  49.1365580  84.8481774   9.4506508  49.5638397  83.4112714
   4.0864808  31.3209109  84.6854574   4.1506134  32.1823940  84.2731972
   4.0231928  30.7083110  83.9526932  13.9611189  43.7995216  89.9381344
  14.5051093  44.4125175  89.4436298  13.3798033  44.3574795  90.4548357
  12.2468702  46.9215934  81.0696371  12.1219841  46.1205674  80.5607317
  12.9047793  47.4162128  80.5810341   3.8676870  33.2764667  80.2473512
   3.1463456  33.8900635  80.1080985   4.6570126  33.8122432  80.1690157
  14.3103610  44.7224954  82.6975921  13.3633946  44.6030306  82.6254248
  14.6586383  43.8347452  82.7802183   2.0670464  32.8822768  74.3885288
   1.7383171  32.0020147  74.2060394   2.4209835  32.8270437  75.2761677
  11.3150043  44.5177671  78.8980274  11.1675006  43.5894378  79.0787844
  12.1403537  44.5397761  78.4137349   5.1812288  33.1695738  74.7560766
   5.5208360  33.6981659  74.0339374   5.6284408  33.5076144  75.5319332
  14.9184165  45.3406229  79.9845146  15.8430713  45.1349091  79.8469598
  14.7499468  45.0922631  80.8934488   7.8755728  31.5532788  84.2063834
   7.5352549  30.7540601  84.6084514   7.1694735  31.8534499  83.6340667
   8.5272200  28.6382101  82.6591157   9.3498270  28.1642579  82.5370047
   8.7710264  29.4172585  83.1589843   7.1680435  31.6670359  72.9554059
   7.8888797  32.0451612  72.4517775   6.5445739  32.3859236  73.0589036
  11.3111558  32.3715508  73.8912391  11.5275172  33.2540146  73.5901219
  10.8305625  31.9801722  73.1618033   6.0510779  35.3301221  80.4683135
   5.9055360  35.6441525  81.3607417   5.5735983  35.9486122  79.9154034
   7.9107162  32.3203769  80.5164025   7.8968731  31.4244863  80.1796323
   8.6279590  32.3274433  81.1502311   9.7633293  32.7541110  82.5617152
   9.5051070  33.6758180  82.5601483   9.2318333  32.3571544  83.2517617
  14.7079481  45.8591897  75.3407238  14.8816359  45.2938319  74.5881090
  15.2008373  46.6592792  75.1586728   7.3144058  31.2018150  75.7851595
   7.4359969  30.2734796  75.9842483   7.0246100  31.2156836  74.8729911
  10.1835248  28.8873060  78.9218315  10.2056945  28.9512393  77.9670295
  10.6003307  28.0477569  79.1158821  20.5618873  38.6228320  76.9597538
  21.0050019  37.8735645  76.5616661  19.6845383  38.6138456  76.5771270
  15.6954654  45.1758661  72.4404136  16.3905558  45.7965354  72.6591451
  16.0377804  44.3254012  72.7156514   1.3122463  36.9976462  86.3000954
   0.5704199  37.1459098  86.8865584   0.9915207  37.2584728  85.4367703
  17.5946077  42.6258367  73.9691467  18.1197401  42.9645639  73.2440787
  17.5068429  41.6905382  73.7854602   9.2566126  46.5392440  86.0981344
   9.5653252  46.2941587  86.9704043  10.0541608  46.7439079  85.6100214
   9.2786738  48.6930350  78.3286720   8.8391728  48.2006729  79.0219577
  10.0294855  48.1503318  78.0878795   1.7579077  44.8841891  78.3311348
   2.5837097  44.5845663  77.9509992   1.4073129  44.1149513  78.7801137
   6.7260610  44.2368359  80.4009022   6.1040619  43.5739064  80.1011250
   7.3965477  44.2629491  79.7182670  17.2839983  43.2591270  89.2742665
  16.4935527  43.2415409  88.7347164  17.0473338  43.7979564  90.0291701
  17.4037858  40.1083737  86.5875393  17.4535863  39.9433744  87.5290916
  17.2951781  39.2410996  86.1973274   6.2874117  42.7872282  73.8767482
   6.4362237  43.4707747  73.2234155   7.0940560  42.7677373  74.3916938
  14.6941620  36.0914665  87.9034700  15.5951483  35.9521130  87.6118698
  14.7689595  36.2569120  88.8432878   9.0284426  33.4681520  86.7487886
   8.1587735  33.7615086  86.4770475   9.2643906  34.0521965  87.4695150
  18.9056055  42.5280678  86.8317415  18.6140863  42.8910659  87.6680876
  18.2928186  41.8147687  86.6530747  20.1051737  40.0933558  79.3519985
  20.9398629  40.5323362  79.5157546  20.2410866  39.6172211  78.5328231
  17.1543243  37.6513293  85.2997473  17.6297365  37.8440939  84.4916324
  16.2308809  37.7072479  85.0540857   4.0426750  38.8137460  74.8828551
   3.7972792  37.9099790  75.0808761   4.2122664  38.8154611  73.9408029
  11.7323460  29.6861136  84.2653307  12.2505403  30.4222163  83.9399795
  11.3778592  29.9925130  85.1000066   3.3122397  34.5465818  72.3814713
   2.6191642  34.6210173  71.7254749   3.0674149  33.7826161  72.9036230
  11.9836054  26.1061419  79.7854203  12.2637808  25.4384608  80.4114630
  12.7686661  26.2990515  79.2728867   9.7869522  45.2820413  71.3479230
   9.2143489  45.9010600  70.8949702  10.3602316  45.8319775  71.8819152
  15.8544912  34.5279053  83.5325779  16.8062335  34.6277151  83.5538003
  15.6848363  33.7357322  84.0423863  13.8759292  31.6134636  83.7185179
  13.2809224  31.8939649  83.0231668  13.5908988  32.1028537  84.4901921
  13.0066782  45.5657563  72.4787812  13.9397455  45.5003125  72.6820688
  12.9189995  46.4013830  72.0202345  15.6354799  44.8823433  69.4391760
  15.5568430  44.5483297  70.3327517  16.4564466  45.3745201  69.4383232
  18.3332990  37.7485173  82.6468078  18.3009310  36.8101173  82.8327762
  18.9433614  37.8269209  81.9133903  10.1716321  36.6181226  68.6895282
  11.1175425  36.4887434  68.7583700   9.7930566  35.8795888  69.1664710
  18.4827478  34.5396216  82.6926361  17.9666527  33.7554673  82.5056290
  19.3667427  34.2114933  82.8572881  16.1438205  28.2837232  78.6522174
  15.9463026  27.9752320  79.5365506  16.7537911  29.0098871  78.7820104
  24.1509540  38.8101180  81.7874115  24.8812928  38.5486468  82.3481818
  23.5416485  38.0729901  81.8276183  22.2324837  36.9509042  82.3848566
  21.5058000  36.8165007  81.7765058  21.8172124  37.2585871  83.1905284
  10.0555013  40.6698972  90.1495939  10.9758023  40.8477571  90.3435986
  10.0204596  39.7255017  89.9975638   8.3559238  34.5431202  68.6250167
   7.4490693  34.2464315  68.7012881   8.6335219  34.2461020  67.7584454
   3.0517086  38.5800006  82.7918720   3.2703096  39.5117114  82.8106754
   3.4642860  38.2207981  83.5773524   9.9721304  29.0868092  74.7794409
   9.1622032  28.7415177  75.1549655  10.6605721  28.7775635  75.3682020
  11.9011852  28.1646139  76.4018705  12.4542891  28.5841592  77.0608728
  12.1381938  27.2381887  76.4441661   7.1258023  31.4018137  68.7662147
   7.9877187  31.7273036  69.0257964   7.3108367  30.6149633  68.2535212
  15.2790659  30.2746664  75.9097370  14.6989328  30.9331468  75.5275422
  15.0126592  29.4524008  75.4984787  13.7294225  29.6751721  78.1118690
  14.2294004  29.7868256  77.3033009  14.3729833  29.3712774  78.7519498
   1.0562181  39.4158731  78.9208350   1.0332869  39.5146418  77.9690233
   1.3662817  40.2623882  79.2425516   3.7149559  41.4734886  83.0354965
   4.6692812  41.4418828  82.9684896   3.5162082  41.0125509  83.8505191
   4.3048941  40.0436002  85.6025762   5.1241830  40.5380080  85.6260600
   4.5785749  39.1267970  85.5743330  14.0615537  32.4346754  74.9653718
  13.1741392  32.7196405  74.7473913  14.4769526  32.2740517  74.1180995
  17.4130073  32.4593275  78.6808057  18.1890463  32.9489728  78.9532674
  16.6878207  32.8851329  79.1379927  19.8502632  33.1720894  79.7381998
  20.4447123  32.9316630  79.0275306  19.9229216  32.4528025  80.3655534
   2.0699788  47.0154505  80.0525163   1.9354255  46.2554906  79.4863161
   1.6531850  47.7395405  79.5853951  13.2058751  42.1991429  69.0601738
  13.9094601  42.4041431  69.6759393  12.4821399  42.7668191  69.3250821
  14.0356561  37.9501290  75.1804008  13.9791762  38.4069841  74.3411640
  14.5884903  37.1891975  75.0026851  17.8461367  33.7391022  76.0054128
  17.5898301  33.3387658  76.8362335  17.2214235  34.4534816  75.8804267
  22.1573705  36.4787095  78.5125419  21.5973263  36.5480284  79.2856981
  21.5517208  36.3028080  77.7924915   5.2268913  47.9123822  80.2643605
   5.1101298  48.8569255  80.1622295   4.4061360  47.6097384  80.6529404
  15.1145448  42.6373958  71.1100198  15.9491052  42.2055156  70.9277673
  14.9529791  42.4655972  72.0377092  14.7691340  39.1406071  72.4756537
  14.7140144  38.9750343  71.5344981  14.1437395  39.8482104  72.6318727
  12.0837247  41.4454983  91.8010100  12.9528407  41.6195635  91.4396735
  11.6043999  42.2649400  91.6785829   8.0787466  28.6414180  72.0541856
   8.0666135  29.5856020  72.2110126   8.9710887  28.4584326  71.7601317
   6.2523428  48.5652084  83.4799534   7.1550674  48.5975694  83.7966029
   6.0260798  47.6352535  83.4945869   8.0077030  47.3183071  80.1409612
   7.0572661  47.3184932  80.0273985   8.3109516  46.5715805  79.6245647
  11.8939585  25.2356957  76.3087792  11.1271981  24.6815444  76.4544475
  12.3050290  25.3078826  77.1701944  23.7429723  53.1543609  81.2055375
  24.3808133  53.0350356  80.5018715  23.6250566  54.1024453  81.2643327
  20.5519429  53.1071037  81.1416899  20.2137941  52.9912102  80.2537434
  21.4209197  52.7062202  81.1217905  16.4106245  54.9606514  77.1313790
  15.8471110  54.8696451  76.3630078  16.2958640  54.1406418  77.6116283
  21.0339212  54.2605889  87.1003105  21.0227853  53.8658687  86.2283609
  21.1959852  53.5271962  87.6936876  13.9570677  56.4557705  79.9698011
  14.7491969  56.1148530  79.5544310  14.1967327  56.5652680  80.8900164
  21.9905804  58.6277481  72.4428255  21.3393783  59.2131562  72.0562269
  22.7850167  59.1583676  72.5023293  15.9161431  55.7166618  72.8415390
  16.6892307  55.1695606  72.7028265  16.2686830  56.5810868  73.0529851
  17.7546473  57.0443001  86.0482289  17.4636339  57.9488632  85.9328955
  18.3903458  57.0859528  86.7626358  18.6802680  54.4219849  82.6383649
  19.2766253  54.1975872  81.9240611  18.7377652  53.6804595  83.2409096
  18.2527709  51.8759285  70.4733839  18.5053229  51.3540806  69.7117302
  17.3152268  51.7125430  70.5760523  23.2970991  50.8795063  78.2808583
  24.0834081  50.4614486  77.9299000  23.5609696  51.7841155  78.4490231
  23.4681069  56.3167913  72.9797240  22.8326902  56.3902540  73.6918144
  23.1378475  56.9061512  72.3016319  28.6979419  50.8170296  79.1841561
  29.4304591  50.2469513  79.4179391  27.9418774  50.4291897  79.6248067
  17.9723997  53.7787391  72.6758214  17.8560256  53.1032294  73.3439299
  18.0826257  53.2919764  71.8590367  20.3155538  53.2397538  76.3804904
  19.9513746  52.7128159  77.0917825  21.1722654  52.8496007  76.2071389
  26.2204839  44.5291870  83.6436170  25.8888164  45.3987281  83.4197385
  25.6250452  44.2128154  84.3230200  19.9561025  48.2687437  71.3766252
  20.1235428  49.1367674  71.7436723  19.7658194  48.4314719  70.4527541
  22.7136359  56.7304416  83.0432083  22.4137082  57.6329455  82.9347890
  22.3687418  56.4636599  83.8953235  16.1648840  53.1818213  79.0768787
  15.2399336  53.0494427  79.2846479  16.4133253  53.9612432  79.5738729
  26.1133502  49.2486956  80.7229520  25.2050380  49.1802365  80.4288281
  26.0621098  49.7258901  81.5511345  19.9350246  50.7245095  72.3612919
  19.8149871  51.1702146  73.1998399  19.2402835  51.0730412  71.8026457
  13.5257651  52.8251487  79.9112576  13.6550032  53.0785966  80.8251988
  12.8455102  53.4179195  79.5917231  17.6957138  63.4948737  76.0103050
  17.6181168  64.4456562  76.0891531  17.0918782  63.1494609  76.6677977
  20.1874368  50.6676602  88.6664417  19.4107702  51.2270522  88.6567282
  20.8264931  51.1533385  89.1879287  27.9795149  47.4503395  82.5007394
  27.3369529  47.7435928  81.8547188  27.4750077  47.3356315  83.3060590
  25.6335312  51.1966568  73.1893253  26.5453168  51.4293955  73.0140951
  25.1244959  51.7803612  72.6268332  18.4420740  53.4762055  88.2282384
  19.1835425  54.0147099  87.9517208  17.7357726  54.1028344  88.3853936
  23.9176080  55.6191196  86.8254546  24.3259436  55.1773606  86.0809178
  23.1953342  55.0443823  87.0788739  20.2707150  50.5563803  84.1988103
  21.1168345  50.9803216  84.3422752  20.2105788  49.8997427  84.8926666
  24.2404895  56.1792386  80.5806835  23.6113757  56.3438101  79.8782902
  23.8530557  56.5933996  81.3517799  23.4206595  48.2168171  85.8569276
  23.1767527  48.9710231  85.3203552  23.6966526  48.5953519  86.6916523
  25.3745058  54.7606783  84.5346542  25.5861953  55.4038543  83.8580923
  25.3274806  53.9269100  84.0668472  22.9771287  47.3724604  81.4383114
  22.1155766  47.6705858  81.7299852  23.0033722  47.5895003  80.5064147
  19.7932857  55.9166795  77.8456920  20.2571202  56.1954498  77.0561542
  19.5289655  55.0150239  77.6630010  16.6856938  55.4638276  80.7836683
  17.2558295  55.8925544  80.1454167  17.2765049  55.1820861  81.4820869
  18.7301743  52.0389947  74.6546485  19.4325786  52.4910991  75.1220411
  18.3982371  51.3973766  75.2826378  17.1782104  50.6301704  89.0297694
  16.5480765  51.3117984  89.2633091  17.0718192  50.5184785  88.0850832
  12.4727077  50.2973500  79.9563618  11.6826131  50.5531028  79.4803729
  12.9638324  51.1121837  80.0615659  26.4890886  57.6378739  82.7068899
  27.3108330  57.2358926  82.4251581  26.4853289  57.5346973  83.6585015
  14.4241822  50.6618079  76.9147095  13.6272985  50.7736773  77.4330591
  14.1967414  51.0004731  76.0487986  20.2547490  57.1862782  84.8629610
  20.3191922  57.6483189  85.6987781  19.5458413  56.5560147  84.9911920
  10.7564780  50.5503990  82.3878609  11.0072818  51.4351000  82.6536185
  11.2924328  50.3708592  81.6153701  34.5796879  53.9817487  79.0553871
  33.8260588  53.4124885  78.8997875  34.7144420  53.9480152  80.0024505
  19.9695507  58.8530890  74.7308590  19.8341182  59.6982425  75.1593438
  20.5105320  59.0550167  73.9674524  16.4562847  44.9322469  91.3922945
  16.0629792  44.3788668  92.0670589  17.2728987  45.2433048  91.7829463
  13.4224905  56.3706328  75.3036515  13.9349425  57.1649578  75.4542080
  14.0747617  55.6732618  75.2370117  15.2319789  59.4872084  77.3859268
  15.4086418  60.4090049  77.1980252  16.0276623  59.1730503  77.8153648
  19.3730808  46.3480348  88.9843202  20.1140521  46.9487502  88.9047664
  19.6048731  45.6057986  88.4261244  14.5172146  51.5336716  87.2621431
  14.4025661  50.6321973  87.5628530  13.6616664  51.7800412  86.9106248
  21.5963984  59.4754456  88.8608932  21.1527838  58.6890835  88.5429837
  22.2581197  59.6633607  88.1952823  16.3551105  61.0050258  83.3869611
  16.9058530  60.8767321  82.6146605  15.5162581  61.3045147  83.0364503
  23.6945222  59.7557256  86.8890333  23.6763697  60.5766137  86.3970603
  24.6165142  59.6311331  87.1140474  20.1518276  57.2701385  87.7313842
  20.6846613  56.5089674  87.5013150  19.6232357  56.9775037  88.4737996
  23.3187971  42.3761451  83.2607483  22.9752240  43.2663093  83.1846594
  23.6866933  42.1863109  82.3977068  11.3873821  54.6994982  76.0796086
  12.2249043  55.1091990  75.8629793  11.5652089  53.7594424  76.0496279
  20.8685365  47.2119763  76.8265157  20.0126961  46.8226614  76.6470796
  21.2812316  47.2911724  75.9664942  22.3984511  44.7466107  81.2256717
  21.8949307  44.7096242  80.4124522  22.6915118  45.6558849  81.2853373
  18.6427397  44.8304836  80.2322898  19.5080394  44.6347645  79.8728788
  18.7104906  44.6015188  81.1592255  23.0724557  50.2397155  73.5939700
  22.7674692  50.5543304  74.4449843  24.0254999  50.3178575  73.6367033
  21.5170989  56.3987378  75.2432654  20.9892350  55.6640138  74.9305891
  21.0158491  57.1762054  74.9972622  26.4963835  54.5936398  80.3599700
  25.8387509  55.2835660  80.4479829  27.3004234  54.9832830  80.7033686
  16.2489716  47.0607044  77.6039265  16.8233468  46.8382226  76.8712458
  16.8360699  47.1295739  78.3567867  25.3069293  52.9480771  78.4103642
  25.8201175  53.5810763  78.9125351  25.9570517  52.3481967  78.0447002
  16.5759303  49.0911505  71.6235151  15.7396616  49.4286192  71.9444425
  16.4364073  48.9560485  70.6862287  18.5512384  43.9348293  76.3314335
  17.8976796  43.6197310  75.7070949  18.5092858  43.3124034  77.0574158
  22.5691668  62.9265095  71.1664313  21.8953366  63.2296792  71.7749271
  22.9557490  63.7294176  70.8169770  21.7850124  50.4230227  80.6561982
  20.8672686  50.6445174  80.4983670  22.2010268  50.4976537  79.7973690
  22.5685172  51.8221642  75.7864663  23.3156991  52.3343040  75.4771785
  22.8376762  51.5005695  76.6469056  20.8411822  54.3180183  72.7691617
  19.9323041  54.0339216  72.8664087  20.8706906  54.7379262  71.9094924
  25.0164009  48.8578759  77.7683452  24.2786766  48.3456145  78.0993694
  25.2690783  48.4179140  76.9566729  24.5164029  59.7663269  77.4732603
  24.8087003  60.3268326  76.7544968  25.0262649  60.0591830  78.2285762
  25.1175636  41.6355011  78.3625221  25.4234513  40.7752374  78.0751136
  25.8428241  42.2272631  78.1624215  11.4099993  52.0385697  76.7506819
  11.2124392  51.4455058  76.0257886  10.8546657  51.7337907  77.4682758
  19.3896716  51.9308804  78.8701412  19.4445326  50.9782640  78.7943889
  18.5787918  52.0868243  79.3542711  17.3289076  50.5485863  76.6291791
  16.5156942  50.8480034  77.0356983  17.8248070  50.1541552  77.3466273
  19.4797654  60.5443620  78.5626056  19.4373833  60.7704467  77.6334588
  20.3960353  60.3106995  78.7111857  22.9263288  51.0127688  85.4606685
  23.2812676  51.2399161  86.3201151  23.5735419  51.3446065  84.8383940
  16.8203151  48.1204219  82.2453026  17.4602530  47.9792978  81.5475989
  15.9880681  47.8338732  81.8691628  28.6830404  56.2022651  81.1767285
  29.1166911  56.1097940  82.0250340  29.3961985  56.1780151  80.5387301
  17.5963455  57.4206649  78.3588018  18.3904053  56.9256969  78.1570593
  16.8855147  56.8924512  77.9955724  22.4158299  59.8024745  82.7100386
  22.4695322  60.3715681  83.4778102  21.5473081  59.9726630  82.3454423
  13.9046218  51.5649731  74.4347771  12.9743806  51.5034187  74.6517733
  14.0003690  51.0425684  73.6384412  13.8231767  48.0904544  77.0226013
  14.0838585  49.0049877  76.9135173  14.6448940  47.6228986  77.1722626
  15.2956693  49.5042301  84.1924837  15.9679746  49.2959663  83.5437486
  14.4686479  49.3064387  83.7530070  29.5445954  56.2446351  83.7100171
  29.7381844  57.1492162  83.9559446  29.4446572  55.7853771  84.5438756
  21.1982265  46.1304242  86.2090498  20.5510180  46.8294192  86.1154975
  21.9683280  46.5640386  86.5766746  24.6061063  56.3953094  89.2841051
  24.4546569  56.1663646  88.3671135  24.5965742  57.3523696  89.2972397
  21.3746399  53.9685007  84.2687318  22.3038459  54.1196167  84.0956285
  20.9537429  54.0569028  83.4135964  20.1734731  57.9935671  82.0385856
  20.0345816  57.6254456  82.9111794  19.3849327  58.5083311  81.8669813
  20.7682883  63.0944768  73.3811392  20.9434638  62.6232811  74.1957015
  20.0815671  63.7210534  73.6092653  21.7239946  57.3717274  79.4274693
  21.3889779  57.3318044  80.3232343  21.2243892  56.7061990  78.9545104
  15.6984190  52.7784904  84.9527275  15.5603988  52.0465143  85.5538814
  16.6089113  52.6893804  84.6711462  18.3266491  52.4904863  84.4410954
  19.0366109  51.8498056  84.3997573  18.2835799  52.7417758  85.3637135
  26.3153269  59.4272217  87.3617533  26.2565815  58.7431437  86.6948116
  26.7172788  60.1691207  86.9098159  17.0395425  49.4770081  86.2606594
  16.5032782  49.0260820  86.9128190  16.4512133  49.6115990  85.5177058
  15.3343968  66.2434131  80.1551252  15.5740566  66.8752655  80.8330271
  14.4913164  65.8922171  80.4416612  16.4497683  48.9358733  68.8233057
  15.5727150  48.8147533  68.4595304  16.9255437  48.1444811  68.5711946
  26.3170676  57.3911801  85.5931513  25.4297455  57.0537722  85.7157912
  26.8869228  56.6594832  85.8300278   7.9699824  53.7235892  78.9174564
   8.6570863  53.4097622  78.3295580   7.8147952  54.6277257  78.6441816
  12.7734546  48.6126089  83.3459588  12.6892734  48.0051759  82.6109998
  11.9517252  49.1035107  83.3469084  19.8471830  62.0513253  82.5592756
  19.7742001  62.8568225  83.0712061  19.4049223  62.2505219  81.7340778
  19.6361610  61.2885023  76.0695578  18.8529131  61.8306703  76.1633802
  20.3354355  61.8059003  76.4689819  22.9458260  47.0979653  78.7129783
  23.4426959  46.3449615  78.3930853  22.1745241  47.1343969  78.1472993
  30.7988017  52.8020018  80.3548075  30.7877893  53.6844733  79.9842008
  29.9305396  52.4491569  80.1602612  22.3070513  61.9500087  84.7150915
  23.0198486  62.5847552  84.6426816  21.8160542  62.0463953  83.8990917
  24.0288040  55.8551340  76.2868207  23.0944319  55.9752802  76.1172911
  24.2064709  54.9523806  76.0228216  19.5293228  49.2397035  78.4401468
  19.1591016  48.6868076  79.1282373  20.0252321  48.6355169  77.8876468
  27.4160592  51.6968659  76.8218241  27.8821044  52.5296651  76.7478543
  27.8668092  51.2313641  77.5263499  17.3582427  59.6994531  85.5356486
  18.0591886  60.3331013  85.6885880  16.8877542  60.0409262  84.7752125
  25.3877254  44.0649246  80.8609142  24.4740334  44.2953473  81.0291349
  25.8170356  44.1487690  81.7123174  25.1583713  52.2539138  83.3609036
  24.5055163  52.5015045  82.7061489  25.5364093  51.4403276  83.0271513
  22.1190887  62.2898831  77.4637206  22.3013281  61.4720487  77.9264959
  22.9423873  62.5066523  77.0262096  22.4533052  61.2167016  74.7252255
  22.9820819  60.7059471  74.1122417  22.7161272  60.9009546  75.5897788
  21.2071286  52.9958949  89.8475073  20.5311923  52.8953078  90.5177448
  22.0298920  52.8398163  90.3111070  12.9550145  59.2330886  82.4687588
  13.5403582  58.4874573  82.6015493  12.7574983  59.5434842  83.3524252
  15.8088800  62.2682133  77.4850031  15.1399175  62.7528261  77.0014071
  15.6701670  62.5151353  78.3993409   7.5467800  51.8036486  81.1892032
   7.5851899  51.2700076  81.9829150   7.0408093  51.2771691  80.5703009
  19.9494069  64.3025876  84.0832689  20.5012377  64.4657498  84.8481774
  20.2900262  64.8930314  83.4112714  14.9258562  46.6501026  84.6854574
  14.9899889  47.5115857  84.2731972  14.8625682  46.0375028  83.9526932
  14.4010835  48.7224159  88.3327608  15.0282873  48.3401236  88.9465132
  13.5438753  48.5038361  88.6983301  24.8004943  59.1287134  89.9381344
  25.3444847  59.7417092  89.4436298  24.2191788  59.6866712  90.4548357
  11.1776377  50.5300588  74.2645963  11.4729818  49.6211266  74.2113017
  10.2764413  50.5088327  73.9426965  23.0862456  62.2507852  81.0696371
  22.9613596  61.4497592  80.5607317  23.7441547  62.7454045  80.5810341
  14.7070624  48.6056584  80.2473512  13.9857210  49.2192552  80.1080985
  15.4963880  49.1414349  80.1690157  25.1497364  60.0516872  82.6975921
  24.2027700  59.9322223  82.6254248  25.4980138  59.1639370  82.7802183
  17.5096938  45.9411011  86.5214163  18.0331340  46.1873308  87.2840473
  17.2909271  46.7731046  86.1017301  12.9064219  48.2114686  74.3885288
  12.5776925  47.3312065  74.2060394  13.2603590  48.1562354  75.2761677
  22.1543798  59.8469588  78.8980274  22.0068760  58.9186296  79.0787844
  22.9797291  59.8689679  78.4137349  16.0206042  48.4987655  74.7560766
  16.3602115  49.0273577  74.0339374  16.4678163  48.8368062  75.5319332
  25.7577920  60.6698147  79.9845146  26.6824467  60.4641008  79.8469598
  25.5893223  60.4214548  80.8934488  18.7149483  46.8824706  84.2063834
  18.3746303  46.0832519  84.6084514  18.0088489  47.1826417  83.6340667
  19.3665955  43.9674019  82.6591157  20.1892024  43.4934497  82.5370047
  19.6104018  44.7464502  83.1589843  18.0074189  46.9962277  72.9554059
  18.7282552  47.3743530  72.4517775  17.3839493  47.7151154  73.0589036
  22.1505312  47.7007426  73.8912391  22.3668926  48.5832064  73.5901219
  21.6699379  47.3093639  73.1618033  16.8904533  50.6593139  80.4683135
  16.7449114  50.9733442  81.3607417  16.4129737  51.2778039  79.9154034
  18.7500916  47.6495687  80.5164025  18.7362485  46.7536780  80.1796323
  19.4673344  47.6566351  81.1502311  20.6027047  48.0833027  82.5617152
  20.3444825  49.0050098  82.5601483  20.0712087  47.6863462  83.2517617
  11.3650196  53.1998484  83.4070797  10.8203664  53.9758292  83.5391071
  12.2429545  53.5469288  83.2489918  18.1537812  46.5310067  75.7851595
  18.2753723  45.6026714  75.9842483  17.8639855  46.5448753  74.8729911
  21.0229003  44.2164978  78.9218315  21.0450699  44.2804311  77.9670295
  21.4397062  43.3769487  79.1158821  12.1516217  52.3268380  86.3000954
  11.4097954  52.4751015  86.8865584  11.8308962  52.5876645  85.4367703
  20.0959880  61.8684358  86.0981344  20.4047007  61.6233505  86.9704043
  20.8935362  62.0730997  85.6100214  20.1180492  64.0222268  78.3286720
  19.6785482  63.5298646  79.0219577  20.8688609  63.4795235  78.0878795
  12.5972831  60.2133809  78.3311348  13.4230851  59.9137580  77.9509992
  12.2466883  59.4441431  78.7801137  17.5654364  59.5660277  80.4009022
  16.9434374  58.9030982  80.1011250  18.2359231  59.5921409  79.7182670
  10.7981436  58.1320135  79.2900282   9.9613345  57.7042309  79.1084283
  10.7705082  58.3252578  80.2271073  17.6378892  48.0442065  89.9941528
  17.6867047  48.9204188  89.6119297  18.1801406  47.5019458  89.4213171
  28.1233737  58.5883188  89.2742665  27.3329281  58.5707327  88.7347164
  27.8867092  59.1271482  90.0291701  28.2431613  55.4375654  86.5875393
  28.2929617  55.2725662  87.5290916  28.1345536  54.5702913  86.1973274
  17.1267871  58.1164200  73.8767482  17.2755992  58.7999665  73.2234155
  17.9334315  58.0969290  74.3916938  25.5335375  51.4206582  87.9034700
  26.4345238  51.2813047  87.6118698  25.6083349  51.5861037  88.8432878
  19.8678180  48.7973437  86.7487886  18.9981490  49.0907003  86.4770475
  20.1037661  49.3813882  87.4695150  29.7449809  57.8572596  86.8317415
  29.4534618  58.2202576  87.6680876  29.1321941  57.1439604  86.6530747
  30.9445492  55.4225476  79.3519985  31.7792383  55.8615280  79.5157546
  31.0804620  54.9464129  78.5328231  27.9936998  52.9805211  85.2997473
  28.4691119  53.1732857  84.4916324  27.0702563  53.0364396  85.0540857
  14.8820504  54.1429378  74.8828551  14.6366546  53.2391708  75.0808761
  15.0516419  54.1446528  73.9408029  22.5717214  45.0153054  84.2653307
  23.0899158  45.7514081  83.9399795  22.2172347  45.3217047  85.1000066
  14.1516152  49.8757735  72.3814713  13.4585397  49.9502090  71.7254749
  13.9067904  49.1118079  72.9036230  22.8229808  41.4353337  79.7854203
  23.1031562  40.7676526  80.4114630  23.6080415  41.6282432  79.2728867
  20.6263277  60.6112331  71.3479230  20.0537244  61.2302518  70.8949702
  21.1996070  61.1611692  71.8819152  26.6938667  49.8570971  83.5325779
  27.6456090  49.9569068  83.5538003  26.5242117  49.0649239  84.0423863
  24.7153046  46.9426554  83.7185179  24.1202978  47.2231567  83.0231668
  24.4302743  47.4320455  84.4901921  23.8460537  60.8949481  72.4787812
  24.7791210  60.8295042  72.6820688  23.7583749  61.7305748  72.0202345
  29.1726744  53.0777090  82.6468078  29.1403065  52.1393091  82.8327762
  29.7827368  53.1561127  81.9133903  29.3221233  49.8688134  82.6926361
  28.8060282  49.0846590  82.5056290  30.2061181  49.5406850  82.8572881
  26.9831960  43.6129149  78.6522174  26.7856781  43.3044238  79.5365506
  27.5931665  44.3390788  78.7820104  34.9903294  54.1393097  81.7874115
  35.7206683  53.8778385  82.3481818  34.3810240  53.4021819  81.8276183
  33.0718591  52.2800960  82.3848566  32.3451755  52.1456925  81.7765058
  32.6565878  52.5877788  83.1905284  20.8948768  55.9990889  90.1495939
  21.8151777  56.1769488  90.3435986  20.8598351  55.0546935  89.9975638
  19.1952992  49.8723120  68.6250167  18.2884448  49.5756232  68.7012881
  19.4728973  49.5752938  67.7584454  10.1130933  51.1929483  79.0749214
   9.7933717  50.3394791  78.7823588   9.5664361  51.4078061  79.8307181
  13.8910840  53.9091924  82.7918720  14.1096850  54.8409032  82.8106754
  14.3036614  53.5499899  83.5773524  20.8115058  44.4160009  74.7794409
  20.0015786  44.0707094  75.1549655  21.4999475  44.1067553  75.3682020
  22.7405606  43.4938056  76.4018705  23.2936645  43.9133510  77.0608728
  22.9775693  42.5673804  76.4441661  18.7638706  49.4825130  92.1821469
  18.6635433  50.4319487  92.1133560  18.5460248  49.1543369  91.3097539
  17.9651777  46.7310055  68.7662147  18.8270941  47.0564953  69.0257964
  18.1502121  45.9441551  68.2535212   9.9819193  54.8132395  81.0442335
   9.2882664  54.3986347  80.5312290  10.7292184  54.8552931  80.4475754
  26.1184414  45.6038581  75.9097370  25.5383083  46.2623385  75.5275422
  25.8520346  44.7815926  75.4984787  24.5687980  45.0043639  78.1118690
  25.0687758  45.1160174  77.3033009  25.2123588  44.7004692  78.7519498
  18.6269976  52.9122269  90.9986531  18.1437057  53.7122629  91.2050420
  18.7130915  52.9230214  90.0453975  11.8955935  54.7450648  78.9208350
  11.8726623  54.8438336  77.9690233  12.2056572  55.5915799  79.2425516
  14.5543313  56.8026803  83.0354965  15.5086567  56.7710746  82.9684896
  14.3555837  56.3417427  83.8505191  15.1442695  55.3727919  85.6025762
  15.9635584  55.8671998  85.6260600  15.4179503  54.4559888  85.5743330
  24.9009292  47.7638672  74.9653718  24.0135147  48.0488322  74.7473913
  25.3163281  47.6032435  74.1180995  28.2523828  47.7885193  78.6808057
  29.0284218  48.2781645  78.9532674  27.5271962  48.2143247  79.1379927
  30.6896386  48.5012812  79.7381998  31.2840877  48.2608548  79.0275306
  30.7622970  47.7819943  80.3655534  12.9093542  62.3446423  80.0525163
  12.7748010  61.5846824  79.4863161  12.4925604  63.0687323  79.5853951
  28.6855121  49.0682940  76.0054128  28.4292055  48.6679575  76.8362335
  28.0607989  49.7826734  75.8804267  32.9967459  51.8079013  78.5125419
  32.4367017  51.8772202  79.2856981  32.3910962  51.6319997  77.7924915
  16.0662668  63.2415740  80.2643605  15.9495052  64.1861172  80.1622295
  15.2455114  62.9389301  80.6529404  10.3977610  49.7066053  86.3017959
  11.0436473  49.1965007  86.7905185  10.1894761  50.4434735  86.8761385
  22.9231002  56.7746901  91.8010100  23.7922161  56.9487553  91.4396735
  22.4437753  57.5941318  91.6785829  18.9181220  43.9706098  72.0541856
  18.9059890  44.9147938  72.2110126  19.8104642  43.7876243  71.7601317
  17.0917182  63.8944002  83.4799534  17.9944429  63.9267612  83.7966029
  16.8654552  62.9644453  83.4945869  18.8470784  62.6474988  80.1409612
  17.8966415  62.6476850  80.0273985  19.1503270  61.9007723  79.6245647
  22.7333340  40.5648875  76.3087792  21.9665735  40.0107361  76.4544475
  23.1444044  40.6370743  77.1701944  14.7375101  46.8533670  90.3992974
  15.6006562  46.4970475  90.6096298  14.1640511  46.5147565  91.0868378
  31.8732967  69.5897807  87.1003105  31.8621608  69.1950605  86.2283609
  32.0353606  68.8563879  87.6936876  24.7964431  71.7849623  79.9698011
  25.5885723  71.4440448  79.5544310  25.0361082  71.8944598  80.8900164
  28.5940228  72.3734918  86.0482289  28.3030094  73.2780549  85.9328955
  29.2297212  72.4151446  86.7626358  29.5196435  69.7511767  82.6383649
  30.1160007  69.5267789  81.9240611  29.5771406  69.0096512  83.2409096
  33.5530113  72.0596334  83.0432083  33.2530836  72.9621373  82.9347890
  33.2081173  71.7928517  83.8953235  27.0042594  68.5110131  79.0768787
  26.0793091  68.3786345  79.2846479  27.2527008  69.2904350  79.5738729
  24.3651406  68.1543404  79.9112576  24.4943787  68.4077883  80.8251988
  23.6848857  68.7471112  79.5917231  28.5350893  78.8240654  76.0103050
  28.4574922  79.7748479  76.0891531  27.9312536  78.4786527  76.6677977
  31.0268123  65.9968520  88.6664417  30.2501457  66.5562440  88.6567282
  31.6658686  66.4825303  89.1879287  29.2814495  68.8053973  88.2282384
  30.0229179  69.3439017  87.9517208  28.5751480  69.4320262  88.3853936
  34.7569835  70.9483114  86.8254546  35.1653191  70.5065524  86.0809178
  34.0347096  70.3735741  87.0788739  27.5250692  70.7930194  80.7836683
  28.0952049  71.2217462  80.1454167  28.1158804  70.5112778  81.4820869
  28.0175859  65.9593621  89.0297694  27.3874519  66.6409902  89.2633091
  27.9111947  65.8476703  88.0850832  23.3120831  65.6265417  79.9563618
  22.5219885  65.8822946  79.4803729  23.8032078  66.4413755  80.0615659
  37.3284641  72.9670656  82.7068899  38.1502084  72.5650844  82.4251581
  37.3247043  72.8638891  83.6585015  25.2635576  65.9909996  76.9147095
  24.4666740  66.1028691  77.4330591  25.0361169  66.3296649  76.0487986
  31.0941244  72.5154700  84.8629610  31.1585677  72.9775107  85.6987781
  30.3852168  71.8852065  84.9911920  21.5958534  65.8795908  82.3878609
  21.8466572  66.7642918  82.6536185  22.1318082  65.7000509  81.6153701
  27.2956601  60.2614387  91.3922945  26.9023547  59.7080586  92.0670589
  28.1122742  60.5724966  91.7829463  26.0713544  74.8164002  77.3859268
  26.2480172  75.7381966  77.1980252  26.8670377  74.5022421  77.8153648
  30.2124562  61.6772266  88.9843202  30.9534276  62.2779419  88.9047664
  30.4442485  60.9349904  88.4261244  25.3565900  66.8628633  87.2621431
  25.2419415  65.9613891  87.5628530  24.5010418  67.1092330  86.9106248
  32.4357738  74.8046374  88.8608932  31.9921592  74.0182752  88.5429837
  33.0974952  74.9925524  88.1952823  27.1944859  76.3342175  83.3869611
  27.7452284  76.2059239  82.6146605  26.3556335  76.6337064  83.0364503
  34.5338976  75.0849174  86.8890333  34.5157452  75.9058055  86.3970603
  35.4558896  74.9603249  87.1140474  30.9912030  72.5993303  87.7313842
  31.5240367  71.8381591  87.5013150  30.4626111  72.3066955  88.4737996
  22.2267576  70.0286900  76.0796086  23.0642798  70.4383908  75.8629793
  22.4045844  69.0886342  76.0496279  29.4821152  60.1596754  80.2322898
  30.3474148  59.9639563  79.8728788  29.5498660  59.9307106  81.1592255
  27.0883471  62.3898962  77.6039265  27.6627223  62.1674143  76.8712458
  27.6754453  62.4587656  78.3567867  22.2493747  67.3677615  76.7506819
  22.0518147  66.7746976  76.0257886  21.6940411  67.0629825  77.4682758
  28.1682831  65.8777781  76.6291791  27.3550696  66.1771952  77.0356983
  28.6641825  65.4833470  77.3466273  30.3191408  75.8735538  78.5626056
  30.2767587  76.0996384  77.6334588  31.2354107  75.6398913  78.7111857
  27.6596905  63.4496137  82.2453026  28.2996285  63.3084896  81.5475989
  26.8274436  63.1630650  81.8691628  33.2552054  75.1316663  82.7100386
  33.3089076  75.7007599  83.4778102  32.3866835  75.3018548  82.3454423
  24.6625522  63.4196462  77.0226013  24.9232339  64.3341795  76.9135173
  25.4842694  62.9520904  77.1722626  26.1350447  64.8334219  84.1924837
  26.8073501  64.6251581  83.5437486  25.3080234  64.6356305  83.7530070
  35.4454817  71.7245012  89.2841051  35.2940323  71.4955564  88.3671135
  35.4359497  72.6815613  89.2972397  32.2140153  69.2976925  84.2687318
  33.1432213  69.4488084  84.0956285  31.7931183  69.3860945  83.4135964
  31.0128485  73.3227589  82.0385856  30.8739571  72.9546373  82.9111794
  30.2243081  73.8375228  81.8669813  32.5633700  72.7009192  79.4274693
  32.2283533  72.6609962  80.3232343  32.0637646  72.0353908  78.9545104
  26.5377944  68.1076822  84.9527275  26.3997742  67.3757061  85.5538814
  27.4482868  68.0185722  84.6711462  29.1660245  67.8196781  84.4410954
  29.8759864  67.1789973  84.3997573  29.1229553  68.0709676  85.3637135
  37.1547024  74.7564134  87.3617533  37.0959570  74.0723355  86.6948116
  37.5566542  75.4983124  86.9098159  27.8789179  64.8061999  86.2606594
  27.3426536  64.3552737  86.9128190  27.2905887  64.9407908  85.5177058
  26.1737723  81.5726048  80.1551252  26.4134321  82.2044572  80.8330271
  25.3306919  81.2214088  80.4416612  37.1564431  72.7203718  85.5931513
  36.2691210  72.3829640  85.7157912  37.7262982  71.9886750  85.8300278
  18.8093578  69.0527810  78.9174564  19.4964618  68.7389540  78.3295580
  18.6541707  69.9569175  78.6441816  23.6128300  63.9418007  83.3459588
  23.5286489  63.3343676  82.6109998  22.7911007  64.4327025  83.3469084
  30.6865584  77.3805171  82.5592756  30.6135756  78.1860142  83.0712061
  30.2442977  77.5797137  81.7340778  33.1464268  77.2792005  84.7150915
  33.8592240  77.9139470  84.6426816  32.6554297  77.3755871  83.8990917
  28.1976181  75.0286448  85.5356486  28.8985641  75.6622931  85.6885880
  27.7271296  75.3701180  84.7752125  32.9584641  77.6190749  77.4637206
  33.1407036  76.8012405  77.9264959  33.7817627  77.8358441  77.0262096
  32.0465040  68.3250867  89.8475073  31.3705677  68.2244996  90.5177448
  32.8692674  68.1690080  90.3111070  23.7943899  74.5622803  82.4687588
  24.3797336  73.8166491  82.6015493  23.5968738  74.8726760  83.3524252
  26.6482555  77.5974051  77.4850031  25.9792930  78.0820178  77.0014071
  26.5095424  77.8443271  78.3993409  18.3861554  67.1328403  81.1892032
  18.4245654  66.5991994  81.9829150  17.8801847  66.6063609  80.5703009
  30.7887823  79.6317794  84.0832689  31.3406131  79.7949416  84.8481774
  31.1294017  80.2222232  83.4112714  25.7652317  61.9792944  84.6854574
  25.8293643  62.8407775  84.2731972  25.7019437  61.3666946  83.9526932
  25.2404589  64.0516076  88.3327608  25.8676628  63.6693154  88.9465132
  24.3832508  63.8330278  88.6983301  35.6398698  74.4579052  89.9381344
  36.1838602  75.0709010  89.4436298  35.0585542  75.0158630  90.4548357
  22.0170132  65.8592506  74.2645963  22.3123573  64.9503184  74.2113017
  21.1158168  65.8380245  73.9426965  33.9256211  77.5799770  81.0696371
  33.8007350  76.7789510  80.5607317  34.5835302  78.0745963  80.5810341
  25.5464379  63.9348502  80.2473512  24.8250965  64.5484470  80.1080985
  26.3357635  64.4706267  80.1690157  35.9891119  75.3808790  82.6975921
  35.0421454  75.2614141  82.6254248  36.3373892  74.4931288  82.7802183
  28.3490692  61.2702929  86.5214163  28.8725094  61.5165225  87.2840473
  28.1303026  62.1022963  86.1017301  23.7457973  63.5406603  74.3885288
  23.4170680  62.6603982  74.2060394  24.0997344  63.4854272  75.2761677
  32.9937552  75.1761506  78.8980274  32.8462515  74.2478213  79.0787844
  33.8191046  75.1981597  78.4137349  36.5971674  75.9990065  79.9845146
  37.5218222  75.7932926  79.8469598  36.4286977  75.7506466  80.8934488
  30.2059709  59.2965936  82.6591157  31.0285779  58.8226414  82.5370047
  30.4497773  60.0756420  83.1589843  27.7298288  65.9885057  80.4683135
  27.5842869  66.3025360  81.3607417  27.2523492  66.6069957  79.9154034
  29.5894671  62.9787605  80.5164025  29.5756240  62.0828698  80.1796323
  30.3067099  62.9858269  81.1502311  22.2043950  68.5290401  83.4070797
  21.6597418  69.3050209  83.5391071  23.0823300  68.8761206  83.2489918
  22.9909972  67.6560298  86.3000954  22.2491708  67.8042933  86.8865584
  22.6702716  67.9168563  85.4367703  30.9353635  77.1976276  86.0981344
  31.2440761  76.9525423  86.9704043  31.7329117  77.4022914  85.6100214
  30.9574247  79.3514185  78.3286720  30.5179237  78.8590564  79.0219577
  31.7082364  78.8087153  78.0878795  23.4366586  75.5425726  78.3311348
  24.2624606  75.2429498  77.9509992  23.0860638  74.7733349  78.7801137
  28.4048119  74.8952194  80.4009022  27.7828128  74.2322899  80.1011250
  29.0752986  74.9213326  79.7182670  21.6375191  73.4612053  79.2900282
  20.8007099  73.0334227  79.1084283  21.6098836  73.6544496  80.2271073
  28.4772646  63.3733982  89.9941528  28.5260802  64.2496105  89.6119297
  29.0195161  62.8311376  89.4213171  38.9627492  73.9175106  89.2742665
  38.1723036  73.8999245  88.7347164  38.7260847  74.4563399  90.0291701
  40.5843564  73.1864514  86.8317415  40.2928372  73.5494494  87.6680876
  39.9715695  72.4731522  86.6530747  33.6623563  56.7645254  79.7854203
  33.9425317  56.0968443  80.4114630  34.4474170  56.9574350  79.2728867
  45.8297049  69.4685015  81.7874115  46.5600437  69.2070303  82.3481818
  45.2203994  68.7313737  81.8276183  43.9112346  67.6092877  82.3848566
  43.1845509  67.4748842  81.7765058  43.4959633  67.9169706  83.1905284
  31.7342522  71.3282807  90.1495939  32.6545532  71.5061406  90.3435986
  31.6992105  70.3838852  89.9975638  20.9524687  66.5221401  79.0749214
  20.6327472  65.6686709  78.7823588  20.4058115  66.7369979  79.8307181
  24.7304595  69.2383842  82.7918720  24.9490605  70.1700950  82.8106754
  25.1430369  68.8791816  83.5773524  29.6032460  64.8117048  92.1821469
  29.5029187  65.7611405  92.1133560  29.3854002  64.4835286  91.3097539
  20.8212947  70.1424312  81.0442335  20.1276419  69.7278265  80.5312290
  21.5685938  70.1844849  80.4475754  29.4663730  68.2414186  90.9986531
  28.9830812  69.0414547  91.2050420  29.5524669  68.2522131  90.0453975
  22.7349690  70.0742566  78.9208350  22.7120378  70.1730253  77.9690233
  23.0450326  70.9207717  79.2425516  25.3937068  72.1318721  83.0354965
  26.3480321  72.1002663  82.9684896  25.1949591  71.6709345  83.8505191
  25.9836450  70.7019837  85.6025762  26.8029339  71.1963916  85.6260600
  26.2573258  69.7851805  85.5743330  23.7487296  77.6738341  80.0525163
  23.6141764  76.9138741  79.4863161  23.3319359  78.3979240  79.5853951
  26.9056422  78.5707658  80.2643605  26.7888807  79.5153090  80.1622295
  26.0848869  78.2681219  80.6529404  21.2371364  65.0357971  86.3017959
  21.8830228  64.5256925  86.7905185  21.0288515  65.7726653  86.8761385
  33.7624756  72.1038818  91.8010100  34.6315916  72.2779471  91.4396735
  33.2831508  72.9233235  91.6785829  27.9310936  79.2235919  83.4799534
  28.8338183  79.2559530  83.7966029  27.7048307  78.2936370  83.4945869
  29.6864538  77.9766906  80.1409612  28.7360170  77.9768768  80.0273985
  29.9897025  77.2299641  79.6245647  33.5727094  55.8940792  76.3087792
  32.8059490  55.3399279  76.4544475  33.9837799  55.9662661  77.1701944
  25.5768855  62.1825588  90.3992974  26.4400317  61.8262393  90.6096298
  25.0034266  61.8439483  91.0868378  45.4217232  83.8127444  81.2055375
  46.0595642  83.6934192  80.5018715  45.3038075  84.7608288  81.2643327
  42.2306938  83.7654873  81.1416899  41.8925450  83.6495937  80.2537434
  43.0996706  83.3646038  81.1217905  38.0893754  85.6190349  77.1313790
  37.5258619  85.5280286  76.3630078  37.9746149  84.7990253  77.6116283
  42.7126721  84.9189724  87.1003105  42.7015362  84.5242523  86.2283609
  42.8747361  84.1855797  87.6936876  35.6358186  87.1141541  79.9698011
  36.4279478  86.7732365  79.5544310  35.8754836  87.2236516  80.8900164
  43.6693313  89.2861317  72.4428255  43.0181292  89.8715397  72.0562269
  44.4637675  89.8167512  72.5023293  37.5948940  86.3750454  72.8415390
  38.3679816  85.8279441  72.7028265  37.9474339  87.2394703  73.0529851
  39.4333982  87.7026836  86.0482289  39.1423848  88.6072467  85.9328955
  40.0690967  87.7443364  86.7626358  40.3590189  85.0803685  82.6383649
  40.9553762  84.8559707  81.9240611  40.4165161  84.3388430  83.2409096
  44.9758500  81.5378898  78.2808583  45.7621590  81.1198321  77.9299000
  45.2397205  82.4424990  78.4490231  45.1468578  86.9751749  72.9797240
  44.5114411  87.0486375  73.6918144  44.8165984  87.5645347  72.3016319
  50.3766928  81.4754131  79.1841561  51.1092100  80.9053348  79.4179391
  49.6206283  81.0875732  79.6248067  39.6511506  84.4371226  72.6758214
  39.5347764  83.7616129  73.3439299  39.7613766  83.9503600  71.8590367
  41.9943047  83.8981373  76.3804904  41.6301255  83.3711994  77.0917825
  42.8510163  83.5079842  76.2071389  47.8992348  75.1875706  83.6436170
  47.5675673  76.0571117  83.4197385  47.3037961  74.8711990  84.3230200
  44.3923867  87.3888252  83.0432083  44.0924591  88.2913290  82.9347890
  44.0474927  87.1220435  83.8953235  37.8436349  83.8402048  79.0768787
  36.9186845  83.7078263  79.2846479  38.0920762  84.6196268  79.5738729
  47.7921011  79.9070792  80.7229520  46.8837889  79.8386200  80.4288281
  47.7408607  80.3842737  81.5511345  35.2045160  83.4835322  79.9112576
  35.3337541  83.7369801  80.8251988  34.5242611  84.0763030  79.5917231
  39.3744647  94.1532572  76.0103050  39.2968677  95.1040397  76.0891531
  38.7706291  93.8078444  76.6677977  41.8661877  81.3260437  88.6664417
  41.0895211  81.8854357  88.6567282  42.5052440  81.8117220  89.1879287
  49.6582658  78.1087230  82.5007394  49.0157038  78.4019763  81.8547188
  49.1537586  77.9940150  83.3060590  47.3122821  81.8550403  73.1893253
  48.2240677  82.0877790  73.0140951  46.8032468  82.4387448  72.6268332
  40.1208249  84.1345891  88.2282384  40.8622934  84.6730935  87.9517208
  39.4145235  84.7612179  88.3853936  45.5963589  86.2775031  86.8254546
  46.0046945  85.8357442  86.0809178  44.8740851  85.7027659  87.0788739
  41.9494659  81.2147638  84.1988103  42.7955854  81.6387052  84.3422752
  41.8893297  80.5581262  84.8926666  45.9192404  86.8376222  80.5806835
  45.2901266  87.0021936  79.8782902  45.5318066  87.2517831  81.3517799
  49.7981636  87.7730660  77.9351198  49.1132674  88.1529561  77.3848232
  49.8825485  88.3825986  78.6683146  45.0994104  78.8752006  85.8569276
  44.8555036  79.6294067  85.3203552  45.3754035  79.2537354  86.6916523
  47.0532567  85.4190619  84.5346542  47.2649462  86.0622379  83.8580923
  47.0062315  84.5852935  84.0668472  44.6558796  78.0308439  81.4383114
  43.7943275  78.3289693  81.7299852  44.6821231  78.2478838  80.5064147
  41.4720366  86.5750630  77.8456920  41.9358711  86.8538333  77.0561542
  41.2077164  85.6734074  77.6630010  38.3644447  86.1222111  80.7836683
  38.9345804  86.5509380  80.1454167  38.9552558  85.8404696  81.4820869
  40.4089252  82.6973782  74.6546485  41.1113295  83.1494826  75.1220411
  40.0769880  82.0557601  75.2826378  38.8569613  81.2885539  89.0297694
  38.2268274  81.9701820  89.2633091  38.7505701  81.1768620  88.0850832
  34.1514586  80.9557335  79.9563618  33.3613640  81.2114863  79.4803729
  34.6425833  81.7705673  80.0615659  48.1678395  88.2962574  82.7068899
  48.9895839  87.8942761  82.4251581  48.1640798  88.1930808  83.6585015
  36.1029331  81.3201914  76.9147095  35.3060494  81.4320608  77.4330591
  35.8754923  81.6588566  76.0487986  41.9334999  87.8446617  84.8629610
  41.9979431  88.3067025  85.6987781  41.2245922  87.2143982  84.9911920
  32.4352289  81.2087825  82.3878609  32.6860327  82.0934835  82.6536185
  32.9711837  81.0292427  81.6153701  56.2584388  84.6401323  79.0553871
  55.5048097  84.0708721  78.8997875  56.3931929  84.6063987  80.0024505
  41.6483016  89.5114725  74.7308590  41.5128691  90.3566261  75.1593438
  42.1892829  89.7134003  73.9674524  38.1350356  75.5906305  91.3922945
  37.7417301  75.0372503  92.0670589  38.9516496  75.9016883  91.7829463
  35.1012414  87.0290163  75.3036515  35.6136934  87.8233413  75.4542080
  35.7535126  86.3316453  75.2370117  36.9107298  90.1455919  77.3859268
  37.0873927  91.0673884  77.1980252  37.7064132  89.8314338  77.8153648
  41.0518317  77.0064184  88.9843202  41.7928030  77.6071337  88.9047664
  41.2836240  76.2641822  88.4261244  36.1959655  82.1920551  87.2621431
  36.0813170  81.2905808  87.5628530  35.3404173  82.4384248  86.9106248
  43.2751493  90.1338291  88.8608932  42.8315347  89.3474670  88.5429837
  43.9368706  90.3217442  88.1952823  38.0338614  91.6634093  83.3869611
  38.5846039  91.5351156  82.6146605  37.1950090  91.9628982  83.0364503
  45.3732731  90.4141091  86.8890333  45.3551206  91.2349972  86.3970603
  46.2952651  90.2895167  87.1140474  41.8305785  87.9285221  87.7313842
  42.3634122  87.1673509  87.5013150  41.3019866  87.6358873  88.4737996
  44.9975480  73.0345287  83.2607483  44.6539749  73.9246928  83.1846594
  45.3654442  72.8446944  82.3977068  33.0661330  85.3578817  76.0796086
  33.9036552  85.7675826  75.8629793  33.2439598  84.4178259  76.0496279
  44.0772020  75.4049942  81.2256717  43.5736816  75.3680077  80.4124522
  44.3702627  76.3142685  81.2853373  49.9360037  85.7786253  73.7033092
  49.1589479  85.4397412  73.2588254  50.6151518  85.7838876  73.0288057
  44.7512066  80.8980990  73.5939700  44.4462201  81.2127139  74.4449843
  45.7042508  80.9762410  73.6367033  43.1958498  87.0571213  75.2432654
  42.6679859  86.3223973  74.9305891  42.6946000  87.8345890  74.9972622
  48.1751344  85.2520234  80.3599700  47.5175018  85.9419495  80.4479829
  48.9791743  85.6416666  80.7033686  46.9856802  83.6064606  78.4103642
  47.4988684  84.2394598  78.9125351  47.6358026  83.0065802  78.0447002
  44.2479177  93.5848931  71.1664313  43.5740875  93.8880627  71.7749271
  44.6344999  94.3878011  70.8169770  43.4637633  81.0814062  80.6561982
  42.5460195  81.3029009  80.4983670  43.8797777  81.1560372  79.7973690
  44.2472681  82.4805478  75.7864663  44.9944500  82.9926875  75.4771785
  44.5164270  82.1589530  76.6469056  42.5199331  84.9764018  72.7691617
  41.6110550  84.6923051  72.8664087  42.5494415  85.3963097  71.9094924
  47.7518599  88.5870608  76.5382784  47.2980926  87.7461518  76.5947975
  47.1212565  89.2232006  76.8757565  46.6951518  79.5162594  77.7683452
  45.9574275  79.0039980  78.0993694  46.9478292  79.0762976  76.9566729
  46.1951538  90.4247105  77.4732603  46.4874512  90.9852162  76.7544968
  46.7050158  90.7175666  78.2285762  33.0887502  82.6969533  76.7506819
  32.8911901  82.1038893  76.0257886  32.5334166  82.3921743  77.4682758
  41.0684225  82.5892639  78.8701412  41.1232835  81.6366475  78.7943889
  40.2575427  82.7452078  79.3542711  42.2175419  86.5172762  70.1079695
  41.7794849  85.8008621  69.6485333  42.9585860  86.7448877  69.5464787
  39.0076585  81.2069699  76.6291791  38.1944451  81.5063869  77.0356983
  39.5035579  80.8125388  77.3466273  41.1585163  91.2027456  78.5626056
  41.1161342  91.4288302  77.6334588  42.0747862  90.9690830  78.7111857
  44.6050797  81.6711523  85.4606685  44.9600184  81.8982996  86.3201151
  45.2522928  82.0029900  84.8383940  50.3348534  84.7929959  76.1656014
  50.1966432  84.9831555  75.2377203  49.9784753  85.5549342  76.6224065
  38.4990660  78.7788054  82.2453026  39.1390039  78.6376813  81.5475989
  37.6668190  78.4922568  81.8691628  50.3617913  86.8606486  81.1767285
  50.7954420  86.7681775  82.0250340  51.0749494  86.8363987  80.5387301
  39.2750964  88.0790485  78.3588018  40.0691562  87.5840805  78.1570593
  38.5642656  87.5508348  77.9955724  44.0945808  90.4608580  82.7100386
  44.1482831  91.0299517  83.4778102  43.2260590  90.6310465  82.3454423
  35.5833727  82.2233566  74.4347771  34.6531315  82.1618022  74.6517733
  35.6791199  81.7009519  73.6384412  35.5019276  78.7488379  77.0226013
  35.7626094  79.6633713  76.9135173  36.3236449  78.2812822  77.1722626
  36.9744202  80.1626136  84.1924837  37.6467255  79.9543499  83.5437486
  36.1473988  79.9648222  83.7530070  51.2233463  86.9030187  83.7100171
  51.4169353  87.8075997  83.9559446  51.1234081  86.4437606  84.5438756
  42.8769774  76.7888077  86.2090498  42.2297689  77.4878027  86.1154975
  43.6470789  77.2224221  86.5766746  46.2848572  87.0536930  89.2841051
  46.1334078  86.8247481  88.3671135  46.2753251  88.0107531  89.2972397
  43.0533908  84.6268842  84.2687318  43.9825968  84.7780002  84.0956285
  42.6324938  84.7152863  83.4135964  41.8522240  88.6519507  82.0385856
  41.7133325  88.2838291  82.9111794  41.0636836  89.1667146  81.8669813
  42.4470392  93.7528603  73.3811392  42.6222147  93.2816646  74.1957015
  41.7603180  94.3794369  73.6092653  43.4027455  88.0301109  79.4274693
  43.0677288  87.9901879  80.3232343  42.9031401  87.3645825  78.9545104
  37.3771699  83.4368739  84.9527275  37.2391497  82.7048978  85.5538814
  38.2876622  83.3477640  84.6711462  46.3386647  85.3757144  69.7011753
  45.7215817  84.6503972  69.6044806  45.8703135  86.1366504  69.3578827
  40.0054000  83.1488699  84.4410954  40.7153618  82.5081891  84.3997573
  39.9623308  83.4001594  85.3637135  47.9940778  90.0856052  87.3617533
  47.9353324  89.4015272  86.6948116  48.3960297  90.8275042  86.9098159
  38.7182933  80.1353917  86.2606594  38.1820291  79.6844655  86.9128190
  38.1299642  80.2699825  85.5177058  37.0131477  96.9017966  80.1551252
  37.2528075  97.5336490  80.8330271  36.1700673  96.5506006  80.4416612
  47.9958185  88.0495636  85.5931513  47.1084964  87.7121558  85.7157912
  48.5656737  87.3178667  85.8300278  29.6487333  84.3819728  78.9174564
  30.3358372  84.0681458  78.3295580  29.4935461  85.2861092  78.6441816
  34.4522055  79.2709924  83.3459588  34.3680243  78.6635594  82.6109998
  33.6304761  79.7618943  83.3469084  41.5259339  92.7097088  82.5592756
  41.4529510  93.5152060  83.0712061  41.0836732  92.9089054  81.7340778
  41.3149118  91.9468858  76.0695578  40.5316640  92.4890539  76.1633802
  42.0141864  92.4642838  76.4689819  52.4775526  83.4603853  80.3548075
  52.4665402  84.3428569  79.9842008  51.6092905  83.1075404  80.1602612
  43.9858022  92.6083922  84.7150915  44.6985995  93.2431387  84.6426816
  43.4948051  92.7047788  83.8990917  45.7075549  86.5135175  76.2868207
  44.7731828  86.6336638  76.1172911  45.8852218  85.6107642  76.0228216
  41.2080737  79.8980871  78.4401468  40.8378525  79.3451911  79.1282373
  41.7039830  79.2939004  77.8876468  49.0948101  82.3552494  76.8218241
  49.5608553  83.1880486  76.7478543  49.5455601  81.8897476  77.5263499
  39.0369936  90.3578366  85.5356486  39.7379395  90.9914849  85.6885880
  38.5665051  90.6993097  84.7752125  47.1624332  88.6996316  73.8204393
  47.4384176  88.5852910  74.7298267  46.2928830  88.3013801  73.7816566
  47.0664763  74.7233081  80.8609142  46.1527843  74.9537308  81.0291349
  47.4957865  74.8071525  81.7123174  46.8371222  82.9122973  83.3609036
  46.1842672  83.1598881  82.7061489  47.2151602  82.0987112  83.0271513
  43.7978396  92.9482666  77.4637206  43.9800790  92.1304322  77.9264959
  44.6211382  93.1650359  77.0262096  44.1320561  91.8750852  74.7252255
  44.6608328  91.3643306  74.1122417  44.3948781  91.5593382  75.5897788
  42.8858795  83.6542784  89.8475073  42.2099432  83.5536914  90.5177448
  43.7086429  83.4981998  90.3111070  34.6337654  89.8914721  82.4687588
  35.2191091  89.1458409  82.6015493  34.4362492  90.2018678  83.3524252
  37.4876309  92.9265968  77.4850031  36.8186684  93.4112096  77.0014071
  37.3489179  93.1735189  78.3993409  29.2255309  82.4620321  81.1892032
  29.2639408  81.9283912  81.9829150  28.7195602  81.9355527  80.5703009
  41.6281578  94.9609712  84.0832689  42.1799886  95.1241333  84.8481774
  41.9687771  95.5514150  83.4112714  36.6046071  77.3084862  84.6854574
  36.6687398  78.1699693  84.2731972  36.5413191  76.6958863  83.9526932
  36.0798344  79.3807994  88.3327608  36.7070382  78.9985071  88.9465132
  35.2226262  79.1622196  88.6983301  46.4792452  89.7870969  89.9381344
  47.0232356  90.4000928  89.4436298  45.8979297  90.3450548  90.4548357
  32.8563886  81.1884423  74.2645963  33.1517327  80.2795102  74.2113017
  31.9551922  81.1672163  73.9426965  44.7649965  92.9091687  81.0696371
  44.6401105  92.1081427  80.5607317  45.4229056  93.4037881  80.5810341
  36.3858133  79.2640420  80.2473512  35.6644719  79.8776388  80.1080985
  37.1751389  79.7998185  80.1690157  46.8284873  90.7100707  82.6975921
  45.8815209  90.5906059  82.6254248  47.1767647  89.8223205  82.7802183
  39.1884447  76.5994846  86.5214163  39.7118849  76.8457143  87.2840473
  38.9696780  77.4314881  86.1017301  34.5851728  78.8698521  74.3885288
  34.2564434  77.9895900  74.2060394  34.9391099  78.8146190  75.2761677
  43.8331307  90.5053424  78.8980274  43.6856269  89.5770131  79.0787844
  44.6584800  90.5273514  78.4137349  37.6993551  79.1571491  74.7560766
  38.0389624  79.6857412  74.0339374  38.1465672  79.4951897  75.5319332
  47.4365429  91.3281982  79.9845146  48.3611976  91.1224844  79.8469598
  47.2680732  91.0798384  80.8934488  40.3936992  77.5408541  84.2063834
  40.0533812  76.7416355  84.6084514  39.6875998  77.8410252  83.6340667
  41.0453464  74.6257854  82.6591157  41.8679533  74.1518332  82.5370047
  41.2891527  75.4048338  83.1589843  38.5692042  81.3176975  80.4683135
  38.4236623  81.6317278  81.3607417  38.0917246  81.9361875  79.9154034
  40.4288425  78.3079523  80.5164025  40.4149994  77.4120616  80.1796323
  41.1460853  78.3150186  81.1502311  42.2814556  78.7416863  82.5617152
  42.0232334  79.6633933  82.5601483  41.7499596  78.3447297  83.2517617
  47.2260745  91.8467650  75.3407238  47.3997622  91.2814072  74.5881090
  47.7189636  92.6468545  75.1586728  33.0437705  83.8582319  83.4070797
  32.4991173  84.6342127  83.5391071  33.9217054  84.2053123  83.2489918
  53.0800136  84.6104073  76.9597538  53.5231282  83.8611398  76.5616661
  52.2026646  84.6014209  76.5771270  48.2135917  91.1634414  72.4404136
  48.9086822  91.7841107  72.6591451  48.5559067  90.3129765  72.7156514
  33.8303726  82.9852215  86.3000954  33.0885463  83.1334851  86.8865584
  33.5096471  83.2460481  85.4367703  50.1127340  88.6134120  73.9691467
  50.6378664  88.9521393  73.2440787  50.0249693  87.6781135  73.7854602
  41.7747389  92.5268193  86.0981344  42.0834516  92.2817340  86.9704043
  42.5722871  92.7314832  85.6100214  41.7968001  94.6806103  78.3286720
  41.3572991  94.1882482  79.0219577  42.5476118  94.1379071  78.0878795
  34.2760340  90.8717644  78.3311348  35.1018360  90.5721416  77.9509992
  33.9254392  90.1025266  78.7801137  39.2441873  90.2244112  80.4009022
  38.6221883  89.5614817  80.1011250  39.9146740  90.2505244  79.7182670
  32.4768945  88.7903970  79.2900282  31.6400853  88.3626145  79.1084283
  32.4492591  88.9836414  80.2271073  39.3166401  78.7025900  89.9941528
  39.3654556  79.5788023  89.6119297  39.8588915  78.1603293  89.4213171
  49.8021246  89.2467023  89.2742665  49.0116790  89.2291162  88.7347164
  49.5654601  89.7855317  90.0291701  49.9219122  86.0959490  86.5875393
  49.9717126  85.9309497  87.5290916  49.8133045  85.2286749  86.1973274
  38.8055380  88.7748035  73.8767482  38.9543501  89.4583500  73.2234155
  39.6121824  88.7553126  74.3916938  47.2122884  82.0790418  87.9034700
  48.1132747  81.9396883  87.6118698  47.2870858  82.2444873  88.8432878
  41.5465689  79.4557273  86.7487886  40.6768999  79.7490839  86.4770475
  41.7825170  80.0397718  87.4695150  51.4237318  88.5156431  86.8317415
  51.1322127  88.8786412  87.6680876  50.8109450  87.8023440  86.6530747
  52.6233001  86.0809311  79.3519985  53.4579892  86.5199115  79.5157546
  52.7592129  85.6047964  78.5328231  49.6724507  83.6389046  85.2997473
  50.1478628  83.8316692  84.4916324  48.7490072  83.6948232  85.0540857
  36.5608013  84.8013213  74.8828551  36.3154055  83.8975543  75.0808761
  36.7303928  84.8030364  73.9408029  44.2504723  75.6736889  84.2653307
  44.7686667  76.4097916  83.9399795  43.8959856  75.9800883  85.1000066
  35.8303661  80.5341571  72.3814713  35.1372906  80.6085926  71.7254749
  35.5855413  79.7701914  72.9036230  42.3050786  91.2696166  71.3479230
  41.7324753  91.8886353  70.8949702  42.8783579  91.8195528  71.8819152
  48.3726176  80.5154806  83.5325779  49.3243598  80.6152904  83.5538003
  48.2029626  79.7233075  84.0423863  46.3940555  77.6010389  83.7185179
  45.7990487  77.8815402  83.0231668  46.1090252  78.0904290  84.4901921
  45.5248046  91.5533316  72.4787812  46.4578719  91.4878878  72.6820688
  45.4371258  92.3889583  72.0202345  48.1536062  90.8699186  69.4391760
  48.0749694  90.5359050  70.3327517  48.9745729  91.3620954  69.4383232
  50.8514253  83.7360926  82.6468078  50.8190573  82.7976926  82.8327762
  51.4614877  83.8144962  81.9133903  51.0008742  80.5271969  82.6926361
  50.4847791  79.7430426  82.5056290  51.8848690  80.1990686  82.8572881
  48.6619469  74.2712985  78.6522174  48.4644290  73.9628073  79.5365506
  49.2719174  74.9974624  78.7820104  56.6690803  84.7976933  81.7874115
  57.3994192  84.5362221  82.3481818  56.0597749  84.0605654  81.8276183
  54.7506100  82.9384795  82.3848566  54.0239264  82.8040760  81.7765058
  54.3353387  83.2461624  83.1905284  42.5736277  86.6574725  90.1495939
  43.4939286  86.8353324  90.3435986  42.5385860  85.7130770  89.9975638
  31.7918442  81.8513318  79.0749214  31.4721226  80.9978627  78.7823588
  31.2451870  82.0661897  79.8307181  35.5698349  84.5675759  82.7918720
  35.7884359  85.4992867  82.8106754  35.9824123  84.2083734  83.5773524
  40.4426215  80.1408965  92.1821469  40.3422942  81.0903322  92.1133560
  40.2247757  79.8127204  91.3097539  31.6606702  85.4716230  81.0442335
  30.9670173  85.0570183  80.5312290  32.4079693  85.5136766  80.4475754
  47.7971922  76.2622417  75.9097370  47.2170592  76.9207221  75.5275422
  47.5307855  75.4399761  75.4984787  46.2475489  75.6627474  78.1118690
  46.7475267  75.7744009  77.3033009  46.8911097  75.3588527  78.7519498
  40.3057485  83.5706104  90.9986531  39.8224566  84.3706464  91.2050420
  40.3918424  83.5814049  90.0453975  33.5743444  85.4034484  78.9208350
  33.5514132  85.5022171  77.9690233  33.8844081  86.2499635  79.2425516
  36.2330822  87.4610639  83.0354965  37.1874076  87.4294581  82.9684896
  36.0343346  87.0001263  83.8505191  36.8230204  86.0311755  85.6025762
  37.6423093  86.5255833  85.6260600  37.0967012  85.1143723  85.5743330
  46.5796801  78.4222507  74.9653718  45.6922656  78.7072158  74.7473913
  46.9950790  78.2616270  74.1180995  49.9311337  78.4469028  78.6808057
  50.7071727  78.9365481  78.9532674  49.2059471  78.8727082  79.1379927
  52.3683895  79.1596647  79.7381998  52.9628386  78.9192383  79.0275306
  52.4410479  78.4403778  80.3655534  34.5881051  93.0030258  80.0525163
  34.4535519  92.2430659  79.4863161  34.1713113  93.7271158  79.5853951
  45.7240014  88.1867182  69.0601738  46.4275864  88.3917184  69.6759393
  45.0002663  88.7543944  69.3250821  46.5537824  83.9377043  75.1804008
  46.4973026  84.3945594  74.3411640  47.1066167  83.1767728  75.0026851
  50.3642630  79.7266775  76.0054128  50.1079564  79.3263411  76.8362335
  49.7395498  80.4410569  75.8804267  54.6754968  82.4662848  78.5125419
  54.1154526  82.5356037  79.2856981  54.0698471  82.2903833  77.7924915
  37.7450177  93.8999575  80.2643605  37.6282561  94.8445008  80.1622295
  36.9242623  93.5973137  80.6529404  47.6326711  88.6249711  71.1100198
  48.4672315  88.1930909  70.9277673  47.4711054  88.4531725  72.0377092
  47.2872604  85.1281824  72.4756537  47.2321407  84.9626096  71.5344981
  46.6618659  85.8357857  72.6318727  32.0765119  80.3649889  86.3017959
  32.7223982  79.8548843  86.7905185  31.8682270  81.1018570  86.8761385
  44.6018511  87.4330736  91.8010100  45.4709670  87.6071388  91.4396735
  44.1225262  88.2525153  91.6785829  38.7704691  94.5527837  83.4799534
  39.6731938  94.5851447  83.7966029  38.5442061  93.6228288  83.4945869
  40.5258293  93.3058824  80.1409612  39.5753924  93.3060685  80.0273985
  40.8290779  92.5591558  79.6245647  36.4162610  77.5117506  90.3992974
  37.2794071  77.1554311  90.6096298  35.8428020  77.1731401  91.0868378
  56.2610986  99.1419362  81.2055375  56.8989396  99.0226109  80.5018715
  56.1431829 100.0900206  81.2643327  53.0700693  99.0946790  81.1416899
  52.7319204  98.9787855  80.2537434  53.9390461  98.6937955  81.1217905
  48.9287508 100.9482267  77.1313790  48.3652374 100.8572204  76.3630078
  48.8139903 100.1282171  77.6116283  53.5520476 100.2481642  87.1003105
  53.5409117  99.8534440  86.2283609  53.7141115  99.5147715  87.6936876
  46.4751940 102.4433458  79.9698011  47.2673232 102.1024283  79.5544310
  46.7148591 102.5528433  80.8900164  54.5087067 104.6153234  72.4428255
  53.8575047 105.2007315  72.0562269  55.3031430 105.1459429  72.5023293
  48.4342694 101.7042371  72.8415390  49.2073570 101.1571359  72.7028265
  48.7868093 102.5686621  73.0529851  50.2727737 103.0318754  86.0482289
  49.9817603 103.9364385  85.9328955  50.9084721 103.0735281  86.7626358
  51.1983944 100.4095602  82.6383649  51.7947516 100.1851625  81.9240611
  51.2558915  99.6680348  83.2409096  50.7708972  97.8635038  70.4733839
  51.0234493  97.3416559  69.7117302  49.8333531  97.7001183  70.5760523
  55.8152255  96.8670816  78.2808583  56.6015344  96.4490239  77.9299000
  56.0790959  97.7716908  78.4490231  55.9862332 102.3043666  72.9797240
  55.3508165 102.3778293  73.6918144  55.6559739 102.8937265  72.3016319
  61.2160682  96.8046049  79.1841561  61.9485854  96.2345266  79.4179391
  60.4600038  96.4167650  79.6248067  50.4905261  99.7663144  72.6758214
  50.3741519  99.0908047  73.3439299  50.6007521  99.2795517  71.8590367
  52.8336802  99.2273291  76.3804904  52.4695009  98.7003912  77.0917825
  53.6903918  98.8371760  76.2071389  58.7386102  90.5167623  83.6436170
  58.4069427  91.3863034  83.4197385  58.1431716  90.2003907  84.3230200
  52.4742289  94.2563190  71.3766252  52.6416691  95.1243427  71.7436723
  52.2839458  94.4190472  70.4527541  55.2317622 102.7180169  83.0432083
  54.9318345 103.6205208  82.9347890  54.8868681 102.4512352  83.8953235
  48.6830103  99.1693966  79.0768787  47.7580600  99.0370180  79.2846479
  48.9314517  99.9488185  79.5738729  58.6314766  95.2362709  80.7229520
  57.7231643  95.1678118  80.4288281  58.5802362  95.7134654  81.5511345
  52.4531510  96.7120848  72.3612919  52.3331135  97.1577899  73.1998399
  51.7584098  97.0606166  71.8026457  46.0438914  98.8127240  79.9112576
  46.1731296  99.0661719  80.8251988  45.3636366  99.4054948  79.5917231
  52.7055632  96.6552355  88.6664417  51.9288966  97.2146275  88.6567282
  53.3446195  97.1409138  89.1879287  60.4976412  93.4379148  82.5007394
  59.8550792  93.7311681  81.8547188  59.9931341  93.3232068  83.3060590
  58.1516576  97.1842321  73.1893253  59.0634432  97.4169708  73.0140951
  57.6426223  97.7679365  72.6268332  50.9602004  99.4637808  88.2282384
  51.7016688 100.0022852  87.9517208  50.2538989 100.0904097  88.3853936
  56.4357343 101.6066949  86.8254546  56.8440700 101.1649359  86.0809178
  55.7134605 101.0319576  87.0788739  52.7888414  96.5439556  84.1988103
  53.6349609  96.9678969  84.3422752  52.7287051  95.8873180  84.8926666
  56.7586158 102.1668139  80.5806835  56.1295021 102.3313854  79.8782902
  56.3711820 102.5809749  81.3517799  60.6375390 103.1022577  77.9351198
  59.9526428 103.4821479  77.3848232  60.7219239 103.7117904  78.6683146
  55.9387859  94.2043924  85.8569276  55.6948791  94.9585985  85.3203552
  56.2147789  94.5829272  86.6916523  57.8926322 100.7482536  84.5346542
  58.1043217 101.3914296  83.8580923  57.8456070  99.9144853  84.0668472
  55.4952551  93.3600357  81.4383114  54.6337030  93.6581611  81.7299852
  55.5214985  93.5770756  80.5064147  52.3114120 101.9042548  77.8456920
  52.7752466 102.1830251  77.0561542  52.0470918 101.0025992  77.6630010
  49.2038201 101.4514029  80.7836683  49.7739558 101.8801297  80.1454167
  49.7946313 101.1696614  81.4820869  51.2483006  98.0265700  74.6546485
  51.9507049  98.4786744  75.1220411  50.9163635  97.3849519  75.2826378
  49.6963368  96.6177457  89.0297694  49.0662028  97.2993737  89.2633091
  49.5899455  96.5060538  88.0850832  44.9908340  96.2849253  79.9563618
  44.2007394  96.5406781  79.4803729  45.4819587  97.0997590  80.0615659
  59.0072150 103.6254492  82.7068899  59.8289593 103.2234679  82.4251581
  59.0034552 103.5222726  83.6585015  46.9423085  96.6493832  76.9147095
  46.1454249  96.7612526  77.4330591  46.7148678  96.9880484  76.0487986
  52.7728753 103.1738535  84.8629610  52.8373186 103.6358942  85.6987781
  52.0639677 102.5435900  84.9911920  43.2746043  96.5379743  82.3878609
  43.5254081  97.4226753  82.6536185  43.8105591  96.3584345  81.6153701
  67.0978143  99.9693240  79.0553871  66.3441851  99.4000638  78.8997875
  67.2325684  99.9355905  80.0024505  52.4876771 104.8406643  74.7308590
  52.3522445 105.6858178  75.1593438  53.0286583 105.0425920  73.9674524
  48.9744110  90.9198222  91.3922945  48.5811056  90.3664421  92.0670589
  49.7910251  91.2308801  91.7829463  45.9406168 102.3582081  75.3036515
  46.4530689 103.1525331  75.4542080  46.5928881 101.6608371  75.2370117
  47.7501053 105.4747837  77.3859268  47.9267681 106.3965802  77.1980252
  48.5457886 105.1606256  77.8153648  51.8912071  92.3356102  88.9843202
  52.6321785  92.9363255  88.9047664  52.1229994  91.5933739  88.4261244
  47.0353409  97.5212469  87.2621431  46.9206924  96.6197726  87.5628530
  46.1797927  97.7676166  86.9106248  48.8732368 106.9926011  83.3869611
  49.4239793 106.8643074  82.6146605  48.0343844 107.2920900  83.0364503
  52.6699539 103.2577138  87.7313842  53.2027876 102.4965427  87.5013150
  52.1413620 102.9650790  88.4737996  55.8369234  88.3637204  83.2607483
  55.4933504  89.2538846  83.1846594  56.2048197  88.1738862  82.3977068
  43.9055085 100.6870735  76.0796086  44.7430307 101.0967743  75.8629793
  44.0833353  99.7470177  76.0496279  55.8019517  98.3545816  71.7679919
  55.2866140  99.1250420  72.0068306  55.5296825  97.6810952  72.3912980
  53.3866628  93.1995516  76.8265157  52.5308224  92.8102367  76.6470796
  53.7993580  93.2787477  75.9664942  54.9165775  90.7341860  81.2256717
  54.4130570  90.6971995  80.4124522  55.2096382  91.6434602  81.2853373
  51.1608661  90.8180589  80.2322898  52.0261657  90.6223398  79.8728788
  51.2286169  90.5890941  81.1592255  60.7753791 101.1078170  73.7033092
  59.9983234 100.7689330  73.2588254  61.4545272 101.1130793  73.0288057
  55.5905820  96.2272908  73.5939700  55.2855956  96.5419057  74.4449843
  56.5436262  96.3054328  73.6367033  54.0352252 102.3863131  75.2432654
  53.5073614 101.6515891  74.9305891  53.5339755 103.1637807  74.9972622
  59.0145098 100.5812151  80.3599700  58.3568772 101.2711413  80.4479829
  59.8185497 100.9708583  80.7033686  48.7670980  93.0482797  77.6039265
  49.3414732  92.8257979  76.8712458  49.3541962  93.1171492  78.3567867
  57.8250557  98.9356524  78.4103642  58.3382439  99.5686516  78.9125351
  58.4751781  98.3357720  78.0447002  49.0940567  95.0787258  71.6235151
  48.2577879  95.4161945  71.9444425  48.9545336  94.9436238  70.6862287
  51.0693647  89.9224046  76.3314335  50.4158060  89.6073063  75.7070949
  51.0274121  89.2999787  77.0574158  52.1804852 100.2043341  68.2467627
  51.2731914  99.9732595  68.4458776  52.6775884  99.4080960  68.4341608
  55.0872931 108.9140848  71.1664313  54.4134630 109.2172545  71.7749271
  55.4738753 109.7169929  70.8169770  54.3031388  96.4105980  80.6561982
  53.3853949  96.6320927  80.4983670  54.7191531  96.4852290  79.7973690
  55.0866435  97.8097395  75.7864663  55.8338254  98.3218793  75.4771785
  55.3558025  97.4881448  76.6469056  53.3593086 100.3055936  72.7691617
  52.4504305 100.0214969  72.8664087  53.3888169 100.7255015  71.9094924
  58.5912353 103.9162526  76.5382784  58.1374680 103.0753435  76.5947975
  57.9606320 104.5523924  76.8757565  57.5345273  94.8454512  77.7683452
  56.7968029  94.3331898  78.0993694  57.7872046  94.4054893  76.9566729
  57.0345292 105.7539022  77.4732603  57.3268267 106.3144079  76.7544968
  57.5443913 106.0467583  78.2285762  57.6356900  87.6230764  78.3625221
  57.9415777  86.7628127  78.0751136  58.3609505  88.2148384  78.1624215
  43.9281256  98.0261450  76.7506819  43.7305656  97.4330811  76.0257886
  43.3727920  97.7213660  77.4682758  51.9077980  97.9184557  78.8701412
  51.9626589  96.9658393  78.7943889  51.0969182  98.0743996  79.3542711
  53.0569173 101.8464680  70.1079695  52.6188603 101.1300539  69.6485333
  53.7979614 102.0740795  69.5464787  49.8470340  96.5361616  76.6291791
  49.0338205  96.8355787  77.0356983  50.3429334  96.1417305  77.3466273
  51.9978917 106.5319373  78.5626056  51.9555096 106.7580220  77.6334588
  52.9141616 106.2982748  78.7111857  55.4444551  97.0003441  85.4606685
  55.7993939  97.2274914  86.3201151  56.0916682  97.3321818  84.8383940
  61.1742288 100.1221877  76.1656014  61.0360187 100.3123473  75.2377203
  60.8178507 100.8841260  76.6224065  49.3384414  94.1079972  82.2453026
  49.9783794  93.9668731  81.5475989  48.5061945  93.8214485  81.8691628
  61.2011668 102.1898404  81.1767285  61.6348174 102.0973693  82.0250340
  61.9143249 102.1655904  80.5387301  50.1144718 103.4082402  78.3588018
  50.9085317 102.9132723  78.1570593  49.4036411 102.8800266  77.9955724
  54.9339563 105.7900498  82.7100386  54.9876585 106.3591434  83.4778102
  54.0654344 105.9602383  82.3454423  46.4227482  97.5525484  74.4347771
  45.4925070  97.4909940  74.6517733  46.5184954  97.0301437  73.6384412
  46.3413031  94.0780297  77.0226013  46.6019848  94.9925630  76.9135173
  47.1630203  93.6104740  77.1722626  47.8137956  95.4918054  84.1924837
  48.4861010  95.2835416  83.5437486  46.9867743  95.2940140  83.7530070
  62.0627217 102.2322104  83.7100171  62.2563107 103.1367915  83.9559446
  61.9627836 101.7729524  84.5438756  53.7163528  92.1179995  86.2090498
  53.0691443  92.8169945  86.1154975  54.4864544  92.5516139  86.5766746
  53.8927662  99.9560760  84.2687318  54.8219722 100.1071920  84.0956285
  53.4718692 100.0444781  83.4135964  52.6915994 103.9811424  82.0385856
  52.5527080 103.6130209  82.9111794  51.9030590 104.4959064  81.8669813
  54.2421209 103.3593027  79.4274693  53.9071042 103.3193797  80.3232343
  53.7425155 102.6937743  78.9545104  48.2165453  98.7660657  84.9527275
  48.0785251  98.0340896  85.5538814  49.1270377  98.6769557  84.6711462
  57.1780401 100.7049061  69.7011753  56.5609572  99.9795890  69.6044806
  56.7096889 101.4658422  69.3578827  50.8447754  98.4780616  84.4410954
  51.5547373  97.8373809  84.3997573  50.8017062  98.7293511  85.3637135
  49.5576688  95.4645834  86.2606594  49.0214045  95.0136573  86.9128190
  48.9693396  95.5991743  85.5177058  48.9678947  94.9234486  68.8233057
  48.0908413  94.8023286  68.4595304  49.4436700  94.1320564  68.5711946
  58.8351940 103.3787554  85.5931513  57.9478719 103.0413475  85.7157912
  59.4050491 102.6470585  85.8300278  40.4881087  99.7111645  78.9174564
  41.1752127  99.3973375  78.3295580  40.3329216 100.6153010  78.6441816
  45.2915809  94.6001842  83.3459588  45.2073998  93.9927512  82.6109998
  44.4698516  95.0910860  83.3469084  52.3653093 108.0389006  82.5592756
  52.2923265 108.8443978  83.0712061  51.9230486 108.2380972  81.7340778
  52.1542873 107.2760776  76.0695578  51.3710395 107.8182456  76.1633802
  52.8535618 107.7934756  76.4689819  55.4639523  93.0855406  78.7129783
  55.9608223  92.3325368  78.3930853  54.6926505  93.1219722  78.1472993
  63.3169280  98.7895771  80.3548075  63.3059157  99.6720486  79.9842008
  62.4486660  98.4367322  80.1602612  54.8251777 107.9375840  84.7150915
  55.5379749 108.5723305  84.6426816  54.3341806 108.0339706  83.8990917
  56.5469304 101.8427093  76.2868207  55.6125583 101.9628555  76.1172911
  56.7245972 100.9399560  76.0228216  52.0474492  95.2272789  78.4401468
  51.6772279  94.6743829  79.1282373  52.5433584  94.6230922  77.8876468
  59.9341855  97.6844412  76.8218241  60.4002307  98.5172404  76.7478543
  60.3849356  97.2189394  77.5263499  49.8763690 105.6870284  85.5356486
  50.5773150 106.3206767  85.6885880  49.4058805 106.0285015  84.7752125
  58.0018086 104.0288233  73.8204393  58.2777930 103.9144828  74.7298267
  57.1322585 103.6305718  73.7816566  57.9058518  90.0524999  80.8609142
  56.9921598  90.2829226  81.0291349  58.3351619  90.1363443  81.7123174
  57.6764976  98.2414891  83.3609036  57.0236427  98.4890798  82.7061489
  58.0545356  97.4279029  83.0271513  54.6372150 108.2774584  77.4637206
  54.8194545 107.4596240  77.9264959  55.4605136 108.4942276  77.0262096
  54.9714316 107.2042769  74.7252255  55.5002082 106.6935224  74.1122417
  55.2342535 106.8885300  75.5897788  53.7252549  98.9834702  89.8475073
  53.0493186  98.8828831  90.5177448  54.5480183  98.8273916  90.3111070
  45.4731408 105.2206639  82.4687588  46.0584845 104.4750326  82.6015493
  45.2756247 105.5310595  83.3524252  40.0649063  97.7912239  81.1892032
  40.1033163  97.2575829  81.9829150  39.5589356  97.2647444  80.5703009
  47.4439826  92.6376779  84.6854574  47.5081152  93.4991610  84.2731972
  47.3806946  92.0250781  83.9526932  46.9192098  94.7099912  88.3327608
  47.5464137  94.3276989  88.9465132  46.0620017  94.4914114  88.6983301
  43.6957641  96.5176341  74.2645963  43.9911082  95.6087019  74.2113017
  42.7945677  96.4964080  73.9426965  55.6043720 108.2383605  81.0696371
  55.4794859 107.4373345  80.5607317  56.2622811 108.7329798  80.5810341
  47.2251888  94.5932338  80.2473512  46.5038474  95.2068305  80.1080985
  48.0145144  95.1290102  80.1690157  57.6678628 106.0392625  82.6975921
  56.7208963 105.9197976  82.6254248  58.0161401 105.1515123  82.7802183
  50.0278201  91.9286764  86.5214163  50.5512603  92.1749061  87.2840473
  49.8090535  92.7606799  86.1017301  45.4245482  94.1990439  74.3885288
  45.0958189  93.3187818  74.2060394  45.7784853  94.1438107  75.2761677
  54.6725061 105.8345341  78.8980274  54.5250024 104.9062049  79.0787844
  55.4978555 105.8565432  78.4137349  48.5387306  94.4863408  74.7560766
  48.8783378  95.0149330  74.0339374  48.9859426  94.8243815  75.5319332
  58.2759183 106.6573900  79.9845146  59.2005731 106.4516761  79.8469598
  58.1074486 106.4090301  80.8934488  51.2330746  92.8700459  84.2063834
  50.8927567  92.0708272  84.6084514  50.5269753  93.1702170  83.6340667
  51.8847218  89.9549772  82.6591157  52.7073287  89.4810250  82.5370047
  52.1285282  90.7340255  83.1589843  50.5255453  92.9838030  72.9554059
  51.2463815  93.3619283  72.4517775  49.9020757  93.7026907  73.0589036
  54.6686576  93.6883179  73.8912391  54.8850190  94.5707817  73.5901219
  54.1880643  93.2969392  73.1618033  49.4085797  96.6468892  80.4683135
  49.2630378  96.9609195  81.3607417  48.9311001  97.2653793  79.9154034
  51.2682180  93.6371440  80.5164025  51.2543749  92.7412533  80.1796323
  51.9854608  93.6442104  81.1502311  53.1208311  94.0708780  82.5617152
  52.8626088  94.9925851  82.5601483  52.5893351  93.6739215  83.2517617
  58.0654499 107.1759568  75.3407238  58.2391377 106.6105990  74.5881090
  58.5583391 107.9760462  75.1586728  43.8831459  99.1874237  83.4070797
  43.3384927  99.9634045  83.5391071  44.7610809  99.5345041  83.2489918
  50.6719076  92.5185820  75.7851595  50.7934987  91.5902467  75.9842483
  50.3821118  92.5324506  74.8729911  53.5410266  90.2040731  78.9218315
  53.5631963  90.2680064  77.9670295  53.9578325  89.3645240  79.1158821
  63.9193890  99.9395990  76.9597538  64.3625036  99.1903316  76.5616661
  63.0420401  99.9306127  76.5771270  59.0529672 106.4926332  72.4404136
  59.7480576 107.1133025  72.6591451  59.3952822 105.6421683  72.7156514
  44.6697481  98.3144133  86.3000954  43.9279217  98.4626768  86.8865584
  44.3490225  98.5752398  85.4367703  60.9521095 103.9426037  73.9691467
  61.4772419 104.2813310  73.2440787  60.8643447 103.0073053  73.7854602
  45.1154095 106.2009562  78.3311348  45.9412115 105.9013333  77.9509992
  44.7648147 105.4317184  78.7801137  50.0835628 105.5536030  80.4009022
  49.4615637 104.8906735  80.1011250  50.7540495 105.5797162  79.7182670
  43.3162700 104.1195888  79.2900282  42.4794608 103.6918062  79.1084283
  43.2886345 104.3128331  80.2271073  50.1560155  94.0317818  89.9941528
  50.2048311  94.9079941  89.6119297  50.6982669  93.4895211  89.4213171
  49.6449135 104.1039953  73.8767482  49.7937255 104.7875418  73.2234155
  50.4515578 104.0845043  74.3916938  58.0516638  97.4082335  87.9034700
  58.9526501  97.2688800  87.6118698  58.1264613  97.5736790  88.8432878
  52.3859444  94.7849190  86.7487886  51.5162753  95.0782756  86.4770475
  52.6218924  95.3689635  87.4695150  63.4626755 101.4101229  79.3519985
  64.2973647 101.8491033  79.5157546  63.5985884 100.9339882  78.5328231
  60.5118261  98.9680964  85.2997473  60.9872383  99.1608610  84.4916324
  59.5883826  99.0240149  85.0540857  47.4001768 100.1305131  74.8828551
  47.1547810  99.2267461  75.0808761  47.5697682 100.1322281  73.9408029
  55.0898478  91.0028807  84.2653307  55.6080421  91.7389834  83.9399795
  54.7353610  91.3092800  85.1000066  46.6697415  95.8633488  72.3814713
  45.9766660  95.9377843  71.7254749  46.4249167  95.0993832  72.9036230
  55.3411072  87.4229090  79.7854203  55.6212826  86.7552279  80.4114630
  56.1261679  87.6158185  79.2728867  53.1444540 106.5988084  71.3479230
  52.5718507 107.2178271  70.8949702  53.7177334 107.1487445  71.8819152
  59.2119930  95.8446724  83.5325779  60.1637353  95.9444821  83.5538003
  59.0423381  95.0524992  84.0423863  57.2334310  92.9302307  83.7185179
  56.6384242  93.2107320  83.0231668  56.9484006  93.4196208  84.4901921
  56.3641800 106.8825234  72.4787812  57.2972473 106.8170795  72.6820688
  56.2765013 107.7181501  72.0202345  58.9929817 106.1991104  69.4391760
  58.9143448 105.8650968  70.3327517  59.8139483 106.6912872  69.4383232
  61.6908008  99.0652843  82.6468078  61.6584328  98.1268844  82.8327762
  62.3008632  99.1436880  81.9133903  53.5291339  97.9348896  68.6895282
  54.4750443  97.8055104  68.7583700  53.1505584  97.1963558  69.1664710
  61.8402496  95.8563887  82.6926361  61.3241545  95.0722343  82.5056290
  62.7242445  95.5282603  82.8572881  59.5013223  89.6004902  78.6522174
  59.3038044  89.2919991  79.5365506  60.1112929  90.3266541  78.7820104
  67.5084558 100.1268850  81.7874115  68.2387946  99.8654138  82.3481818
  66.8991503  99.3897572  81.8276183  65.5899855  98.2676713  82.3848566
  64.8633018  98.1332678  81.7765058  65.1747142  98.5753541  83.1905284
  51.7134256  95.8598873  68.6250167  50.8065711  95.5631985  68.7012881
  51.9910237  95.5628691  67.7584454  42.6312196  97.1805236  79.0749214
  42.3114981  96.3270544  78.7823588  42.0845624  97.3953814  79.8307181
  46.4092104  99.8967677  82.7918720  46.6278114 100.8284785  82.8106754
  46.8217878  99.5375652  83.5773524  53.3296322  90.4035762  74.7794409
  52.5197050  90.0582847  75.1549655  54.0180739  90.0943306  75.3682020
  55.2586870  89.4813809  76.4018705  55.8117909  89.9009263  77.0608728
  55.4956956  88.5549557  76.4441661  51.2819969  95.4700883  92.1821469
  51.1816696  96.4195240  92.1133560  51.0641511  95.1419122  91.3097539
  50.4833041  92.7185808  68.7662147  51.3452205  93.0440706  69.0257964
  50.6683385  91.9317304  68.2535212  42.5000456 100.8008148  81.0442335
  41.8063928 100.3862100  80.5312290  43.2473447 100.8428684  80.4475754
  58.6365677  91.5914334  75.9097370  58.0564346  92.2499138  75.5275422
  58.3701610  90.7691679  75.4984787  57.0869243  90.9919392  78.1118690
  57.5869022  91.1035927  77.3033009  57.7304851  90.6880445  78.7519498
  51.1451239  98.8998022  90.9986531  50.6618321  99.6998382  91.2050420
  51.2312178  98.9105967  90.0453975  44.4137199 100.7326401  78.9208350
  44.3907887 100.8314089  77.9690233  44.7237835 101.5791552  79.2425516
  47.0724577 102.7902556  83.0354965  48.0267830 102.7586499  82.9684896
  46.8737100 102.3293180  83.8505191  47.6623959 101.3603672  85.6025762
  48.4816848 101.8547751  85.6260600  47.9360767 100.4435641  85.5743330
  57.4190555  93.7514425  74.9653718  56.5316410  94.0364075  74.7473913
  57.8344544  93.5908188  74.1180995  60.7705091  93.7760946  78.6808057
  61.5465481  94.2657398  78.9532674  60.0453225  94.2019000  79.1379927
  63.2077650  94.4888565  79.7381998  63.8022141  94.2484301  79.0275306
  63.2804233  93.7695696  80.3655534  56.5633768 103.5159099  69.0601738
  57.2669619 103.7209102  69.6759393  55.8396417 104.0835861  69.3250821
  57.3931579  99.2668961  75.1804008  57.3366780  99.7237512  74.3411640
  57.9459921  98.5059645  75.0026851  61.2036385  95.0558693  76.0054128
  60.9473319  94.6555328  76.8362335  60.5789253  95.7702487  75.8804267
  65.5148723  97.7954766  78.5125419  64.9548280  97.8647955  79.2856981
  64.9092226  97.6195750  77.7924915  58.4720466 103.9541629  71.1100198
  59.3066070 103.5222827  70.9277673  58.3104809 103.7823642  72.0377092
  58.1266358 100.4573742  72.4756537  58.0715162 100.2918013  71.5344981
  57.5012413 101.1649775  72.6318727  42.9158873  95.6941806  86.3017959
  43.5617737  95.1840760  86.7905185  42.7076024  96.4310488  86.8761385
  51.4362484  89.9581851  72.0541856  51.4241153  90.9023691  72.2110126
  52.3285905  89.7751996  71.7601317  55.2514603  86.5524628  76.3087792
  54.4846999  85.9983114  76.4544475  55.6625308  86.6246496  77.1701944
  47.2556364  92.8409423  90.3992974  48.1187826  92.4846228  90.6096298
  46.6821775  92.5023318  91.0868378  63.3136043 109.5855108  71.3766252
  63.4810446 110.4535344  71.7436723  63.1233212 109.7482390  70.4527541
  63.2925264 112.0412766  72.3612919  63.1724889 112.4869816  73.1998399
  62.5977853 112.3898083  71.8026457  68.9910330 112.5134239  73.1893253
  69.9028186 112.7461625  73.0140951  68.4819977 113.0971283  72.6268332
  64.2260383 108.5287434  76.8265157  63.3701979 108.1394284  76.6470796
  64.6387334 108.6079395  75.9664942  65.7559529 106.0633777  81.2256717
  65.2524325 106.0263912  80.4124522  66.0490136 106.9726520  81.2853373
  62.0002415 106.1472507  80.2322898  62.8655412 105.9515316  79.8728788
  62.0679924 105.9182859  81.1592255  66.4299575 111.5564825  73.5939700
  66.1249710 111.8710974  74.4449843  67.3830017 111.6346245  73.6367033
  59.6064734 108.3774715  77.6039265  60.1808486 108.1549896  76.8712458
  60.1935717 108.4463409  78.3567867  59.9334321 110.4079176  71.6235151
  59.0971633 110.7453862  71.9444425  59.7939091 110.2728156  70.6862287
  61.9087402 105.2515964  76.3314335  61.2551814 104.9364981  75.7070949
  61.8667876 104.6291704  77.0574158  65.9260190 113.1389313  75.7864663
  66.6732009 113.6510710  75.4771785  66.1951779 112.8173366  76.6469056
  68.3739027 110.1746429  77.7683452  67.6361784 109.6623816  78.0993694
  68.6265801 109.7346811  76.9566729  68.4750654 102.9522681  78.3625221
  68.7809531 102.0920045  78.0751136  69.2003259 103.5440301  78.1624215
  60.1778169 109.4371890  82.2453026  60.8177548 109.2960649  81.5475989
  59.3455699 109.1506403  81.8691628  57.1806785 109.4072215  77.0226013
  57.4413603 110.3217548  76.9135173  58.0023958 108.9396657  77.1722626
  59.8072701 110.2526403  68.8233057  58.9302168 110.1315204  68.4595304
  60.2830455 109.4612482  68.5711946  66.3033278 108.4147323  78.7129783
  66.8001977 107.6617286  78.3930853  65.5320259 108.4511640  78.1472993
  62.8868246 110.5564706  78.4401468  62.5166034 110.0035747  79.1282373
  63.3827339 109.9522840  77.8876468  58.0645642 109.9224255  80.2473512
  57.3432228 110.5360223  80.1080985  58.8538898 110.4582020  80.1690157
  56.2639237 109.5282356  74.3885288  55.9351943 108.6479735  74.2060394
  56.6178608 109.4730025  75.2761677  59.3781060 109.8155326  74.7560766
  59.7177133 110.3441247  74.0339374  59.8253180 110.1535732  75.5319332
  62.7240973 105.2841689  82.6591157  63.5467042 104.8102167  82.5370047
  62.9679036 106.0632173  83.1589843  61.3649207 108.3129948  72.9554059
  62.0857570 108.6911200  72.4517775  60.7414511 109.0318824  73.0589036
  65.5080330 109.0175097  73.8912391  65.7243944 109.8999735  73.5901219
  65.0274397 108.6261310  73.1618033  62.1075934 108.9663358  80.5164025
  62.0937503 108.0704451  80.1796323  62.8248362 108.9734022  81.1502311
  61.5112830 107.8477738  75.7851595  61.6328741 106.9194384  75.9842483
  61.2214873 107.8616424  74.8729911  64.3804021 105.5332649  78.9218315
  64.4025717 105.5971982  77.9670295  64.7972080 104.6937157  79.1158821
  66.1804826 102.7521007  79.7854203  66.4606580 102.0844196  80.4114630
  66.9655433 102.9450103  79.2728867  70.3406978 104.9296820  78.6522174
  70.1431799 104.6211908  79.5365506  70.9506683 105.6558459  78.7820104
  62.5528010 111.1890790  68.6250167  61.6459466 110.8923903  68.7012881
  62.8303991 110.8920608  67.7584454  64.1690076 105.7327680  74.7794409
  63.3590804 105.3874765  75.1549655  64.8574493 105.4235224  75.3682020
  66.0980624 104.8105727  76.4018705  66.6511663 105.2301180  77.0608728
  66.3350711 103.8841475  76.4441661  61.3226795 108.0477726  68.7662147
  62.1845959 108.3732624  69.0257964  61.5077139 107.2609222  68.2535212
  69.4759431 106.9206252  75.9097370  68.8958101 107.5791056  75.5275422
  69.2095364 106.0983597  75.4984787  67.9262998 106.3211310  78.1118690
  68.4262776 106.4327844  77.3033009  68.5698606 106.0172363  78.7519498
  68.2584309 109.0806342  74.9653718  67.3710165 109.3655993  74.7473913
  68.6738299 108.9200106  74.1180995  72.0430139 110.3850610  76.0054128
  71.7867073 109.9847246  76.8362335  71.4183007 111.0994404  75.8804267
  62.2756238 105.2873769  72.0541856  62.2634908 106.2315609  72.2110126
  63.1679660 105.1043914  71.7601317  66.0908357 101.8816545  76.3087792
  65.3240753 101.3275032  76.4544475  66.5019062 101.9538414  77.1701944
  12.9035970  14.8313814  67.9300681  13.5414380  14.7120561  67.2264021
  12.7856813  15.7794658  67.9888633   9.7125676  14.7841242  67.8662206
   9.3744188  14.6682307  66.9782741  10.5815444  14.3832407  67.8463212
   5.5712492  16.6376719  63.8559097   5.0077357  16.5466655  63.0875385
   5.4564887  15.8176623  64.3361589  10.1945459  15.9376094  73.8248412
  10.1834100  15.5428892  72.9528915  10.3566099  15.2042166  74.4182183
   3.1176924  18.1327910  66.6943317   3.9098216  17.7918735  66.2789617
   3.3573574  18.2422885  67.6145471  11.1512050  20.3047686  59.1673562
  10.5000030  20.8901767  58.7807576  11.9456413  20.8353881  59.2268599
   5.0767678  17.3936823  59.5660696   5.8498554  16.8465810  59.4273572
   5.4293076  18.2581073  59.7775158   6.9152720  18.7213206  72.7727596
   6.6242586  19.6258836  72.6574262   7.5509705  18.7629733  73.4871665
   7.8408927  16.0990054  69.3628955   8.4372499  15.8746077  68.6485918
   7.8983899  15.3574800  69.9654403   7.4133955  13.5529489  57.1979146
   7.6659476  13.0311011  56.4362609   6.4758515  13.3895635  57.3005830
  12.4577238  12.5565268  65.0053889  13.2440327  12.1384691  64.6544306
  12.7215943  13.4611360  65.1735538  12.6287316  17.9938118  59.7042546
  11.9933149  18.0672745  60.4163451  12.2984722  18.5831717  59.0261625
  17.8585665  12.4940501  65.9086868  18.5910837  11.9239718  66.1424697
  17.1025021  12.1062101  66.3493373   7.1330244  15.4557595  59.4003521
   7.0166502  14.7802499  60.0684605   7.2432504  14.9689969  58.5835674
   9.4761785  14.9167743  63.1050210   9.1119992  14.3898364  63.8163132
  10.3328901  14.5266212  62.9316696  15.3811086   6.2062075  70.3681476
  15.0494411   7.0757486  70.1442691  14.7856699   5.8898359  71.0475507
   9.1167272   9.9457642  58.1011559   9.2841674  10.8137879  58.4682030
   8.9264441  10.1084924  57.1772848  11.8742605  18.4074621  69.7677389
  11.5743328  19.3099660  69.6593196  11.5293665  18.1406804  70.6198542
   5.3255087  14.8588418  65.8014094   4.4005583  14.7264632  66.0091785
   5.5739500  15.6382637  66.2984036  15.2739749  10.9257161  67.4474827
  14.3656626  10.8572570  67.1533587  15.2227345  11.4029106  68.2756652
   9.0956493  12.4015300  59.0858226   8.9756118  12.8472351  59.9243706
   8.4009081  12.7500617  58.5271764   2.6863898  14.5021692  66.6357883
   2.8156279  14.7556170  67.5497294   2.0061349  15.0949400  66.3162538
   6.8563385  25.1718941  62.7348357   6.7787415  26.1226767  62.8136837
   6.2525029  24.8264814  63.3923283   9.3480615  12.3446807  75.3909724
   8.5713949  12.9040727  75.3812588   9.9871178  12.8303590  75.9124594
  17.1401395   9.1273600  69.2252700  16.4975776   9.4206133  68.5792495
  16.6356324   9.0126520  70.0305897  14.7941559  12.8736773  59.9138560
  15.7059415  13.1064160  59.7386257  14.2851206  13.4573817  59.3513638
   7.6026987  15.1532260  74.9527691   8.3441672  15.6917304  74.6762514
   6.8963973  15.7798549  75.1099243  13.0782327  17.2961401  73.5499852
  13.4865683  16.8543811  72.8054485  12.3559588  16.7214028  73.8034045
   9.4313397  12.2334008  70.9233409  10.2774592  12.6573421  71.0668058
   9.3712035  11.5767632  71.6171972  13.4011141  17.8562591  67.3052141
  12.7720004  18.0208306  66.6028209  13.0136804  18.2704201  68.0763105
  17.2800373  18.7917029  64.6596505  16.5951411  19.1715931  64.1093538
  17.3644223  19.4012356  65.3928453  12.5812842   9.8938376  72.5814583
  12.3373774  10.6480436  72.0448859  12.8572773  10.2723723  73.4161830
  14.5351305  16.4376988  71.2591848  14.7468200  17.0808748  70.5826230
  14.4881053  15.6039305  70.7913779  12.1377534   9.0494809  68.1628421
  11.2762013   9.3476062  68.4545158  12.1639969   9.2665208  67.2309453
   8.9539103  17.5936999  64.5702226   9.4177449  17.8724702  63.7806849
   8.6895901  16.6920444  64.3875317   5.8463184  17.1408481  67.5081990
   6.4164541  17.5695749  66.8699474   6.4371296  16.8591066  68.2066175
   7.8907989  13.7160152  61.3791791   8.5932033  14.1681195  61.8465718
   7.5588618  13.0743971  62.0071685  15.6497133  19.3148944  69.4314206
  16.4714577  18.9129131  69.1496887  15.6459536  19.2117178  70.3830322
   9.4153736  18.8632987  71.5874916   9.4798169  19.3253394  72.4233088
   8.7064660  18.2330352  71.7157226  23.7403126  15.6587692  65.7799177
  22.9866834  15.0895090  65.6243182  23.8750667  15.6250357  66.7269812
   9.1301754  20.5301094  61.4553897   8.9947429  21.3752630  61.8838744
   9.6711566  20.7320372  60.6919830   2.5831151  18.0476532  62.0281822
   3.0955672  18.8419783  62.1787386   3.2353864  17.3502823  61.9615423
   4.3926036  21.1642289  64.1104575   4.5692664  22.0860253  63.9225559
   5.1882870  20.8500708  64.5398955  10.7570230  21.1524661  75.5854239
  10.3134085  20.3661040  75.2675143  11.4187444  21.3403811  74.9198129
   5.5157352  22.6820463  70.1114917   6.0664777  22.5537526  69.3391911
   4.6768827  22.9815352  69.7609810  12.8551468  21.4327461  73.6135640
  12.8369944  22.2536342  73.1215909  13.7771388  21.3081536  73.8385781
   9.3124523  18.9471590  74.4559148   9.8452859  18.1859879  74.2258456
   8.7838604  18.6545242  75.1983303  12.4444500  14.0440267  58.4925225
  11.9291124  14.8144872  58.7313613  12.1721809  13.3705404  59.1158287
  17.4178774  16.7972622  60.4278399  16.6408217  16.4583782  59.9833561
  18.0970255  16.8025245  59.7533364  12.2330803  11.9167360  60.3185006
  11.9280939  12.2313509  61.1695150  13.1861246  11.9948779  60.3612339
  10.6777235  18.0757583  61.9677960  10.1498597  17.3410342  61.6551198
  10.1764738  18.8532259  61.7217929  15.6570081  16.2706603  67.0845007
  14.9993756  16.9605865  67.1725135  16.4610481  16.6603035  67.4278993
  14.4675540  14.6250976  65.1348948  14.9807422  15.2580968  65.6370658
  15.1176764  14.0252172  64.7692308   8.8229835  15.8937793  54.9712933
   7.9156897  15.6627047  55.1704082   9.3200867  15.0975412  55.1586915
  11.7297914  24.6035300  57.8909620  11.0559613  24.9066997  58.4994577
  12.1163736  25.4064381  57.5415077  10.9456371  12.1000432  67.3807289
  10.0278932  12.3215379  67.2228977  11.3616515  12.1746742  66.5218996
  11.7291419  13.4991847  62.5109969  12.4763238  14.0113244  62.2017091
  11.9983008  13.1775900  63.3714363  10.0018069  15.9950388  59.4936923
   9.0929288  15.7109421  59.5909393  10.0313153  16.4149467  58.6340230
  15.2337336  19.6056977  63.2628091  14.7799663  18.7647887  63.3193282
  14.6031303  20.2418376  63.6002871  14.1770256  10.5348964  64.4928758
  13.4393013  10.0226350  64.8239001  14.4297029  10.0949345  63.6812035
  13.6770276  21.4433474  64.1977909  13.9693250  22.0038531  63.4790275
  14.1868896  21.7362035  64.9531068   8.5502963  13.6079009  65.5946719
   8.6051573  12.6552845  65.5189195   7.7394165  13.7638448  66.0788017
   9.6994157  17.5359132  56.8325002   9.2613587  16.8194991  56.3730639
  10.4404598  17.7635246  56.2710093   6.4895323  12.2256068  63.3537098
   5.6763188  12.5250239  63.7602290   6.9854317  11.8311757  64.0711580
   8.6403901  22.2213825  65.2871362   8.5980080  22.4474672  64.3579894
   9.5566600  21.9877200  65.4357164  12.0869535  12.6897893  72.1851992
  12.4418922  12.9169366  73.0446457  12.7341666  13.0216270  71.5629247
  17.8167271  15.8116329  62.8901321  17.6785170  16.0017925  61.9622510
  17.4603490  16.5735712  63.3469372  17.8436651  17.8792856  67.9012592
  18.2773158  17.7868145  68.7495646  18.5568232  17.8550356  67.2632608
   6.7569702  19.0976854  65.0833325   7.5510300  18.6027174  64.8815900
   6.0461394  18.5694717  64.7201031  11.5764546  21.4794950  69.4345693
  11.6301568  22.0485886  70.2023409  10.7079327  21.6496835  69.0699730
  18.7052201  17.9216556  70.4345478  18.8988091  18.8262367  70.6804752
  18.6052819  17.4623975  71.2684063  13.7667309  18.0723299  76.0086358
  13.6152816  17.8433851  75.0916442  13.7571989  19.0293901  76.0217703
  10.5352646  15.6455212  70.9932625  11.4644706  15.7966371  70.8201592
  10.1143676  15.7339233  70.1381271   9.3340978  19.6705876  68.7631162
   9.1952063  19.3024661  69.6357100   8.5455574  20.1853516  68.5915120
   9.9289130  24.7714973  60.1056699  10.1040885  24.3003016  60.9202321
   9.2421918  25.3980739  60.3337959  10.8846193  19.0487479  66.1520000
  10.5496025  19.0088249  67.0477650  10.3850138  18.3832195  65.6790410
   4.8590437  14.4555109  71.6772581   4.7210235  13.7235348  72.2784120
   5.7695360  14.3664009  71.3956769  13.8205384  16.3943513  56.4257060
  13.2034555  15.6690341  56.3290112  13.3521873  17.1552874  56.0824134
   7.4872737  14.1675068  71.1656261   8.1972356  13.5268261  71.1242879
   7.4442045  14.4187963  72.0882442  15.4759516  21.1042422  74.0862840
  15.4172062  20.4201642  73.4193423  15.8779034  21.8461412  73.6343466
   4.4950215  27.9204335  66.8796559   4.7346813  28.5522860  67.5575577
   3.6519411  27.5692376  67.1661918  15.4776923  19.0682006  72.3176820
  14.5903702  18.7307927  72.4403219  16.0475474  18.3365037  72.5545585
   9.0078077  23.7283458  69.2838063   8.9348248  24.5338429  69.7957367
   8.5655470  23.9275424  68.4586084   8.7967856  22.9655228  62.7940884
   8.0135378  23.5076908  62.8879109   9.4960601  23.4829208  63.1935126
  12.1064506   8.7749857  65.4375090  12.6033206   8.0219820  65.1176160
  11.3351488   8.8114174  64.8718299  19.9594264  14.4790223  67.0793381
  19.9484140  15.3614938  66.7087314  19.0911643  14.1261774  66.8847918
  11.4676760  23.6270292  71.4396222  12.1804732  24.2617757  71.3672123
  10.9766789  23.7234158  70.6236223  13.1894287  17.5321545  63.0113513
  12.2550566  17.6523007  62.8418218  13.3670956  16.6294011  62.7473523
  16.5766838  13.3738864  63.5463547  17.0427291  14.2066856  63.4723850
  17.0274339  12.9083845  64.2508806   6.5188674  21.3764735  72.2601792
   7.2198133  22.0101218  72.4131187   6.0483789  21.7179467  71.4997432
  14.6443070  19.7182685  60.5449699  14.9202913  19.6039280  61.4543573
  13.7747568  19.3200170  60.5061872  14.3189960  13.9309343  70.0854343
  13.6661410  14.1785250  69.4306795  14.6970340  13.1173481  69.7516820
  11.2797134  23.9669036  64.1882513  11.4619528  23.1490692  64.6510265
  12.1030120  24.1836728  63.7507403  11.6139299  22.8937221  61.4497561
  12.1427065  22.3829676  60.8367724  11.8767519  22.5779751  62.3143095
  10.3677533  14.6729154  76.5720380   9.6918170  14.5723283  77.2422755
  11.1905167  14.5168368  77.0356377   2.1156392  20.9101090  69.1932895
   2.7009829  20.1644778  69.3260799   1.9181230  21.2205047  70.0769559
   4.9695047  23.9452338  64.2095337   4.3005422  24.4298465  63.7259377
   4.8307917  24.1921558  65.1238716   9.1100316  25.9796081  70.8077996
   9.6618624  26.1427703  71.5727081   9.4506509  26.5700519  70.1358021
  13.9611190  20.8057339  76.6626650  14.5051094  21.4187297  76.1681605
  13.3798035  21.3636917  77.1793663  12.2468703  23.9278057  67.7941678
  12.1219842  23.1267797  67.2852623  12.9047794  24.4224250  67.3055648
  14.3103611  21.7287077  69.4221228  13.3633947  21.6092428  69.3499555
  14.6586384  20.8409575  69.5047489  11.3150045  21.5239793  65.6225580
  11.1675007  20.5956501  65.8033150  12.1403538  21.5459884  65.1382656
  14.9184166  22.3468352  66.7090453  15.8430714  22.1411213  66.5714904
  14.7499470  22.0984753  67.6179795  11.3111559   9.3777631  60.6157698
  11.5275173  10.2602269  60.3146526  10.8305626   8.9863844  59.8863339
   6.0510780  12.3363344  67.1928442   5.9055361  12.6503647  68.0852724
   5.5735984  12.9548244  66.6399341  14.7079483  22.8654019  62.0652544
  14.8816360  22.3000442  61.3126397  15.2008374  23.6654914  61.8832034
  20.5618874  15.6290442  63.6842844  21.0050020  14.8797768  63.2861967
  19.6845384  15.6200579  63.3016576  15.6954655  22.1820784  59.1649443
  16.3905560  22.8027476  59.3836757  16.0377805  21.3316135  59.4401821
  17.5946078  19.6320489  60.6936774  18.1197402  19.9707762  59.9686094
  17.5068431  18.6967505  60.5099908   9.2566127  23.5454563  72.8226650
   9.5653253  23.3003710  73.6949350  10.0541609  23.7501201  72.3345520
   9.2786739  25.6992473  65.0532027   8.8391729  25.2068851  65.7464883
  10.0294856  25.1565440  64.8124102   1.7579078  21.8904013  65.0556655
   2.5837098  21.5907785  64.6755298   1.4073130  21.1211636  65.5046443
   6.7260611  21.2430482  67.1254328   6.1040620  20.5801187  66.8256556
   7.3965478  21.2691614  66.4427976  17.2839984  20.2653393  75.9987971
  16.4935528  20.2477532  75.4592471  17.0473339  20.8041687  76.7537008
  17.4037859  17.1145859  73.3120700  17.4535864  16.9495867  74.2536223
  17.2951783  16.2473118  72.9218581   6.2874118  19.7934405  60.6012789
   6.4362238  20.4769869  59.9479462   7.0940561  19.7739495  61.1162245
  14.6941622  13.0976787  74.6280007  15.5951484  12.9583252  74.3364005
  14.7689596  13.2631242  75.5678184   9.0284427  10.4743642  73.4733193
   8.1587736  10.7677208  73.2015782   9.2643907  11.0584087  74.1940457
  18.9056056  19.5342801  73.5562722  18.6140864  19.8972781  74.3926183
  18.2928187  18.8209809  73.3776054  20.1051738  17.0995681  66.0765292
  20.9398630  17.5385485  66.2402852  20.2410867  16.6234334  65.2573538
  17.1543244  14.6575415  72.0242780  17.6297366  14.8503062  71.2161631
  16.2308810  14.7134601  71.7786163   4.0426751  15.8199583  61.6073858
   3.7972793  14.9161913  61.8054068   4.2122666  15.8216733  60.6653336
   9.7869524  22.2882535  58.0724536   9.2143491  22.9072723  57.6195008
  10.3602317  22.8381897  58.6064458  15.8544913  11.5341176  70.2571085
  16.8062336  11.6339273  70.2783309  15.6848364  10.7419444  70.7669170
  13.8759293   8.6196759  70.4430486  13.2809225   8.9001772  69.7476975
  13.5908990   9.1090660  71.2147227  13.0066783  22.5719686  59.2033119
  13.9397456  22.5065247  59.4065994  12.9189996  23.4075952  58.7447651
  15.6354800  21.8885556  56.1637066  15.5568432  21.5545420  57.0572824
  16.4564467  22.3807324  56.1628539  18.3332991  14.7547295  69.3713385
  18.3009311  13.8163296  69.5573069  18.9433615  14.8331332  68.6379210
  10.1716322  13.6243348  55.4140589  11.1175427  13.4949556  55.4829007
   9.7930567  12.8858010  55.8910017  18.4827480  11.5458339  69.4171668
  17.9666528  10.7616795  69.2301597  19.3667428  11.2177055  69.5818187
  24.1509541  15.8163302  68.5119422  24.8812929  15.5548590  69.0727125
  23.5416486  15.0792024  68.5521490  22.2324838  13.9571165  69.1093873
  21.5058002  13.8227130  68.5010364  21.8172125  14.2647993  69.9150591
  10.0555015  17.6761094  76.8741246  10.9758024  17.8539693  77.0681292
  10.0204598  16.7317140  76.7220945   8.3559239  11.5493325  55.3495474
   7.4490695  11.2526437  55.4258188   8.6335220  11.2523143  54.4829760
   3.0517087  15.5862129  69.5164027   3.2703097  16.5179237  69.5352061
   3.4642861  15.2270103  70.3018831  15.2790660   7.2808786  62.6342676
  14.6989329   7.9393590  62.2520729  15.0126593   6.4586131  62.2230094
  13.7294227   6.6813844  64.8363997  14.2294005   6.7930379  64.0278315
  14.3729835   6.3774897  65.4764805   1.0562182  16.4220853  65.6453657
   1.0332870  16.5208541  64.6935540   1.3662819  17.2686004  65.9670823
   3.7149560  18.4797008  69.7600271   4.6692814  18.4480951  69.6930203
   3.5162084  18.0187632  70.5750497   4.3048942  17.0498124  72.3271069
   5.1241831  17.5442203  72.3505906   4.5785750  16.1330093  72.2988637
  14.0615538   9.4408877  61.6899025  13.1741393   9.7258527  61.4719219
  14.4769527   9.2802640  60.8426301  17.4130074   9.4655398  65.4053364
  18.1890465   9.9551850  65.6777981  16.6878209   9.8913452  65.8625233
  19.8502633  10.1783017  66.4627304  20.4447124   9.9378753  65.7520613
  19.9229217   9.4590147  67.0900841   2.0699789  24.0216628  66.7770469
   1.9354257  23.2617029  66.2108467   1.6531851  24.7457528  66.3099258
  13.2058752  19.2053551  55.7847045  13.9094602  19.4103554  56.4004700
  12.4821401  19.7730313  56.0496128  14.0356562  14.9563413  61.9049315
  13.9791763  15.4131964  61.0656947  14.5884905  14.1954097  61.7272157
  17.8461368  10.7453144  62.7299434  17.5898302  10.3449780  63.5607642
  17.2214236  11.4596938  62.6049573  22.1573706  13.4849218  65.2370726
  21.5973264  13.5542407  66.0102288  21.5517209  13.3090202  64.5170222
   5.2268915  24.9185945  66.9888912   5.1101299  25.8631377  66.8867602
   4.4061361  24.6159506  67.3774711  15.1145449  19.6436081  57.8345505
  15.9491053  19.2117279  57.6522979  14.9529792  19.4718094  58.7622399
  14.7691341  16.1468194  59.2001844  14.7140145  15.9812465  58.2590288
  14.1437397  16.8544227  59.3564034  12.0837249  18.4517106  78.5255407
  12.9528408  18.6257758  78.1642042  11.6044000  19.2711523  78.4031136
   6.2523429  25.5714207  70.2044840   7.1550675  25.6037817  70.5211335
   6.0260799  24.6414658  70.2191176   8.0077031  24.3245193  66.8654919
   7.0572662  24.3247055  66.7519291   8.3109517  23.5777928  66.3490954
  23.7429724  30.1605732  67.9300681  24.3808134  30.0412479  67.2264021
  23.6250567  31.1086576  67.9888633  20.5519431  30.1133160  67.8662206
  20.2137942  29.9974224  66.9782741  21.4209199  29.7124325  67.8463212
  16.4106246  31.9668636  63.8559097  15.8471111  31.8758573  63.0875385
  16.2958641  31.1468541  64.3361589  21.0339214  31.2668012  73.8248412
  21.0227854  30.8720810  72.9528915  21.1959853  30.5334084  74.4182183
  13.9570678  33.4619828  66.6943317  14.7491970  33.1210652  66.2789617
  14.1967328  33.5714803  67.6145471  21.9905805  35.6339604  59.1673562
  21.3393785  36.2193684  58.7807576  22.7850168  36.1645799  59.2268599
  15.9161432  32.7228741  59.5660696  16.6892308  32.1757728  59.4273572
  16.2686831  33.5872990  59.7775158  17.7546475  34.0505123  72.7727596
  17.4636341  34.9550754  72.6574262  18.3903459  34.0921651  73.4871665
  18.6802682  31.4281972  69.3628955  19.2766254  31.2037994  68.6485918
  18.7377653  30.6866717  69.9654403  18.2527710  28.8821407  57.1979146
  18.5053231  28.3602928  56.4362609  17.3152269  28.7187553  57.3005830
  23.2970993  27.8857186  65.0053889  24.0834082  27.4676609  64.6544306
  23.5609697  28.7903278  65.1735538  23.4681070  33.3230036  59.7042546
  22.8326903  33.3964662  60.4163451  23.1378477  33.9123635  59.0261625
  28.6979420  27.8232419  65.9086868  29.4304592  27.2531636  66.1424697
  27.9418776  27.4354019  66.3493373  20.3155540  30.2459660  63.1050210
  19.9513747  29.7190281  63.8163132  21.1722656  29.8558129  62.9316696
  26.2204840  21.5353993  70.3681476  25.8888165  22.4049404  70.1442691
  25.6250454  21.2190277  71.0475507  19.9561027  25.2749560  58.1011559
  20.1235429  26.1429796  58.4682030  19.7658196  25.4376842  57.1772848
  22.7136360  33.7366539  69.7677389  22.4137083  34.6391578  69.6593196
  22.3687419  33.4698722  70.6198542  16.1648841  30.1880336  65.8014094
  15.2399338  30.0556550  66.0091785  16.4133254  30.9674555  66.2984036
  26.1133504  26.2549079  67.4474827  25.2050381  26.1864487  67.1533587
  26.0621099  26.7321024  68.2756652  19.9350247  27.7307217  59.0858226
  19.8149873  28.1764268  59.9243706  19.2402836  28.0792535  58.5271764
  13.5257652  29.8313609  66.6357883  13.6550033  30.0848088  67.5497294
  12.8455104  30.4241317  66.3162538  17.6957140  40.5010859  62.7348357
  17.6181169  41.4518684  62.8136837  17.0918783  40.1556732  63.3923283
  20.1874369  27.6738725  75.3909724  19.4107703  28.2332645  75.3812588
  20.8264932  28.1595508  75.9124594  27.9795150  24.4565517  69.2252700
  27.3369530  24.7498051  68.5792495  27.4750078  24.3418438  70.0305897
  25.6335314  28.2028691  59.9138560  26.5453170  28.4356077  59.7386257
  25.1244961  28.7865735  59.3513638  18.4420742  30.4824178  74.9527691
  19.1835426  31.0209222  74.6762514  17.7357727  31.1090467  75.1099243
  23.9176081  32.6253318  73.5499852  24.3259437  32.1835729  72.8054485
  23.1953343  32.0505946  73.8034045  20.2707151  27.5625925  70.9233409
  21.1168347  27.9865339  71.0668058  20.2105789  26.9059550  71.6171972
  24.2404896  33.1854509  67.3052141  23.6113758  33.3500223  66.6028209
  23.8530558  33.5996119  68.0763105  28.1194128  34.1208947  64.6596505
  27.4345166  34.5007848  64.1093538  28.2037977  34.7304274  65.3928453
  23.4206597  25.2230294  72.5814583  23.1767529  25.9772354  72.0448859
  23.6966527  25.6015641  73.4161830  25.3745059  31.7668906  71.2591848
  25.5861955  32.4100666  70.5826230  25.3274808  30.9331222  70.7913779
  22.9771288  24.3786727  68.1628421  22.1155767  24.6767980  68.4545158
  23.0033723  24.5957125  67.2309453  19.7932858  32.9228917  64.5702226
  20.2571203  33.2016620  63.7806849  19.5289656  32.0212362  64.3875317
  16.6856939  32.4700399  67.5081990  17.2558296  32.8987667  66.8699474
  17.2765051  32.1882983  68.2066175  18.7301744  29.0452070  61.3791791
  19.4325787  29.4973113  61.8465718  18.3982372  28.4035888  62.0071685
  17.1782105  27.6363826  75.7543001  16.5480766  28.3180107  75.9878398
  17.0718193  27.5246908  74.8096139  12.4727078  27.3035622  66.6808925
  11.6826132  27.5593151  66.2049036  12.9638325  28.1183960  66.7860966
  26.4890887  34.6440861  69.4314206  27.3108331  34.2421049  69.1496887
  26.4853290  34.5409096  70.3830322  14.4241823  27.6680201  63.6392402
  13.6272986  27.7798896  64.1575897  14.1967415  28.0066854  62.7733292
  20.2547491  34.1924905  71.5874916  20.3191923  34.6545312  72.4233088
  19.5458415  33.5622270  71.7157226  10.7564781  27.5566113  69.1123916
  11.0072819  28.4413123  69.3781492  11.2924329  27.3770714  68.3399008
  34.5796880  30.9879610  65.7799177  33.8260589  30.4187008  65.6243182
  34.7144422  30.9542274  66.7269812  19.9695508  35.8593012  61.4553897
  19.8341183  36.7044548  61.8838744  20.5105321  36.0612290  60.6919830
  16.4562848  21.9384592  78.1168252  16.0629794  21.3850791  78.7915896
  17.2728988  22.2495170  78.5074769  13.4224906  33.3768450  62.0281822
  13.9349426  34.1711700  62.1787386  14.0747619  32.6794741  61.9615423
  15.2319791  36.4934206  64.1104575  15.4086419  37.4152171  63.9225559
  16.0276624  36.1792626  64.5398955  19.3730809  23.3542471  75.7088508
  20.1140522  23.9549624  75.6292971  19.6048732  22.6120109  75.1506551
  14.5172147  28.5398838  73.9866738  14.4025662  27.6384096  74.2873837
  13.6616665  28.7862535  73.6351555  21.5963985  36.4816579  75.5854239
  21.1527839  35.6952957  75.2675143  22.2581198  36.6695729  74.9198129
  16.3551106  38.0112380  70.1114917  16.9058531  37.8829444  69.3391911
  15.5162582  38.3107269  69.7609810  23.6945223  36.7619379  73.6135640
  23.6763698  37.5828260  73.1215909  24.6165143  36.6373454  73.8385781
  20.1518277  34.2763508  74.4559148  20.6846614  33.5151796  74.2258456
  19.6232358  33.9837160  75.1983303  23.3187972  19.3823574  69.9852790
  22.9752241  20.2725216  69.9091901  23.6866935  19.1925232  69.1222375
  11.3873823  31.7057104  62.8041392  12.2249045  32.1154113  62.5875100
  11.5652090  30.7656547  62.7741586  23.2838255  29.3732185  58.4925225
  22.7684878  30.1436790  58.7313613  23.0115563  28.6997321  59.1158287
  20.8685366  24.2181886  63.5510464  20.0126962  23.8288736  63.3716102
  21.2812318  24.2973847  62.6910249  22.3984512  21.7528229  67.9502023
  21.8949308  21.7158364  67.1369829  22.6915119  22.6620972  68.0098680
  18.6427398  21.8366959  66.9568205  19.5080395  21.6409768  66.5974095
  18.7104907  21.6077311  67.8837562  28.2572529  32.1264540  60.4278399
  27.4801972  31.7875699  59.9833561  28.9364010  32.1317163  59.7533364
  23.0724558  27.2459277  60.3185006  22.7674694  27.5605426  61.1695150
  24.0255000  27.3240697  60.3612339  21.5170990  33.4049501  61.9677960
  20.9892351  32.6702260  61.6551198  21.0158493  34.1824177  61.7217929
  26.4963836  31.5998521  67.0845007  25.8387510  32.2897782  67.1725135
  27.3004235  31.9894953  67.4278993  16.2489717  24.0669167  64.3284572
  16.8233469  23.8444348  63.5957765  16.8360700  24.1357861  65.0813173
  25.3069295  29.9542894  65.1348948  25.8201176  30.5872886  65.6370658
  25.9570518  29.3544089  64.7692308  16.5759305  26.0973628  58.3480457
  15.7396617  26.4348314  58.6689732  16.4364074  25.9622608  57.4107594
  18.5512385  20.9410416  63.0559641  17.8976797  20.6259433  62.4316256
  18.5092859  20.3186156  63.7819464  19.6623590  31.2229711  54.9712933
  18.7550652  30.9918964  55.1704082  20.1594622  30.4267330  55.1586915
  22.5691669  39.9327218  57.8909620  21.8953368  40.2358915  58.4994577
  22.9557491  40.7356298  57.5415077  21.7850125  27.4292349  67.3807289
  20.8672687  27.6507296  67.2228977  22.2010269  27.5038660  66.5218996
  22.5685173  28.8283765  62.5109969  23.3156992  29.3405162  62.2017091
  22.8376763  28.5067818  63.3714363  20.8411823  31.3242306  59.4936923
  19.9323043  31.0401338  59.5909393  20.8706907  31.7441384  58.6340230
  26.0731091  34.9348895  63.2628091  25.6193418  34.0939805  63.3193282
  25.4425058  35.5710294  63.6002871  25.0164010  25.8640881  64.4928758
  24.2786767  25.3518267  64.8239001  25.2690784  25.4241263  63.6812035
  24.5164030  36.7725392  64.1977909  24.8087004  37.3330449  63.4790275
  25.0262651  37.0653953  64.9531068  25.1175638  18.6417133  65.0870528
  25.4234515  17.7814497  64.7996443  25.8428243  19.2334753  64.8869522
  11.4099994  29.0447820  63.4752126  11.2124394  28.4517180  62.7503192
  10.8546658  28.7400030  64.1928064  19.3896717  28.9370926  65.5946719
  19.4445327  27.9844763  65.5189195  18.5787919  29.0930365  66.0788017
  20.5387911  32.8651049  56.8325002  20.1007341  32.1486908  56.3730639
  21.2798352  33.0927164  56.2710093  17.3289077  27.5547986  63.3537098
  16.5156943  27.8542157  63.7602290  17.8248072  27.1603675  64.0711580
  19.4797655  37.5505743  65.2871362  19.4373834  37.7766589  64.3579894
  20.3960354  37.3169118  65.4357164  22.9263289  28.0189810  72.1851992
  23.2812677  28.2461284  73.0446457  23.5735420  28.3508187  71.5629247
  28.6561026  31.1408246  62.8901321  28.5178925  31.3309842  61.9622510
  28.2997245  31.9027629  63.3469372  16.8203152  25.1266342  68.9698333
  17.4602531  24.9855101  68.2721296  15.9880683  24.8400855  68.5936935
  28.6830406  33.2084773  67.9012592  29.1166912  33.1160062  68.7495646
  29.3961986  33.1842274  67.2632608  17.5963456  34.4268772  65.0833325
  18.3904055  33.9319092  64.8815900  16.8855148  33.8986635  64.7201031
  22.4158300  36.8086867  69.4345693  22.4695323  37.3777804  70.2023409
  21.5473082  36.9788753  69.0699730  13.9046219  28.5711854  61.1593078
  12.9743808  28.5096309  61.3763040  14.0003691  28.0487806  60.3629719
  13.8231769  25.0966667  63.7471319  14.0838586  26.0112000  63.6380480
  14.6448941  24.6291109  63.8967932  15.2956694  26.5104424  70.9170144
  15.9679747  26.3021786  70.2682793  14.4686480  26.3126510  70.4775376
  29.5445955  33.2508474  70.4345478  29.7381845  34.1554285  70.6804752
  29.4446573  32.7915893  71.2684063  21.1982266  23.1366365  72.9335805
  20.5510181  23.8356314  72.8400281  21.9683281  23.5702509  73.3012053
  24.6061064  33.4015217  76.0086358  24.4546570  33.1725768  75.0916442
  24.5965743  34.3585818  76.0217703  21.3746400  30.9747130  70.9932625
  22.3038460  31.1258289  70.8201592  20.9537430  31.0631150  70.1381271
  20.1734732  34.9997794  68.7631162  20.0345818  34.6316578  69.6357100
  19.3849328  35.5145433  68.5915120  20.7682884  40.1006890  60.1056699
  20.9434640  39.6294934  60.9202321  20.0815672  40.7272657  60.3337959
  21.7239947  34.3779397  66.1520000  21.3889780  34.3380167  67.0477650
  21.2243893  33.7124113  65.6790410  15.6984191  29.7847027  71.6772581
  15.5603989  29.0527265  72.2784120  16.6089115  29.6955927  71.3956769
  24.6599139  31.7235431  56.4257060  24.0428309  30.9982259  56.3290112
  24.1915627  32.4844791  56.0824134  18.3266492  29.4966986  71.1656261
  19.0366110  28.8560178  71.1242879  18.2835800  29.7479881  72.0882442
  26.3153270  36.4334339  74.0862840  26.2565817  35.7493559  73.4193423
  26.7172789  37.1753329  73.6343466  17.0395426  26.4832204  72.9851900
  16.5032783  26.0322942  73.6373497  16.4512134  26.6178113  72.2422365
  15.3343969  43.2496253  66.8796559  15.5740568  43.8814777  67.5575577
  14.4913166  42.8984293  67.1661918  16.4497685  25.9420855  55.5478364
  15.5727151  25.8209656  55.1840611  16.9255438  25.1506934  55.2957253
  26.3170678  34.3973923  72.3176820  25.4297457  34.0599845  72.4403219
  26.8869229  33.6656954  72.5545585   7.9699825  30.7298015  65.6419871
   8.6570865  30.4159745  65.0540886   7.8147954  31.6339380  65.3687122
  12.7734547  25.6188212  70.0704895  12.6892736  25.0113881  69.3355305
  11.9517253  26.1097230  70.0714391  19.8471831  39.0575376  69.2838063
  19.7742003  39.8630347  69.7957367  19.4049224  39.2567341  68.4586084
  19.6361611  38.2947146  62.7940884  18.8529133  38.8368826  62.8879109
  20.3354356  38.8121125  63.1935126  22.9458261  24.1041775  65.4375090
  23.4426960  23.3511737  65.1176160  22.1745242  24.1406092  64.8718299
  30.7988018  29.8082141  67.0793381  30.7877895  30.6906856  66.7087314
  29.9305398  29.4553691  66.8847918  22.3070515  38.9562210  71.4396222
  23.0198487  39.5909674  71.3672123  21.8160543  39.0526076  70.6236223
  24.0288042  32.8613462  63.0113513  23.0944320  32.9814925  62.8418218
  24.2064710  31.9585929  62.7473523  19.5293230  26.2459158  65.1646774
  19.1591017  25.6930198  65.8527680  20.0252322  25.6417292  64.6121774
  27.4160593  28.7030782  63.5463547  27.8821045  29.5358773  63.4723850
  27.8668093  28.2375763  64.2508806  17.3582428  36.7056653  72.2601792
  18.0591888  37.3393136  72.4131187  16.8877543  37.0471385  71.4997432
  25.4836824  35.0474603  60.5449699  25.7596668  34.9331197  61.4543573
  24.6141323  34.6492088  60.5061872  25.3877256  21.0711369  67.5854449
  24.4740335  21.3015595  67.7536656  25.8170357  21.1549813  68.4368481
  25.1583714  29.2601261  70.0854343  24.5055164  29.5077168  69.4306795
  25.5364094  28.4465399  69.7516820  22.1190888  39.2960954  64.1882513
  22.3013283  38.4782610  64.6510265  22.9423874  39.5128646  63.7507403
  22.4533054  38.2229139  61.4497561  22.9820820  37.7121593  60.8367724
  22.7161273  37.9071669  62.3143095  21.2071287  30.0021072  76.5720380
  20.5311924  29.9015201  77.2422755  22.0298921  29.8460285  77.0356377
  12.9550146  36.2393008  69.1932895  13.5403583  35.4936696  69.3260799
  12.7574985  36.5496965  70.0769559  15.8088801  39.2744256  64.2095337
  15.1399177  39.7590383  63.7259377  15.6701671  39.5213476  65.1238716
   7.5467801  28.8098608  67.9137338   7.5851901  28.2762199  68.7074456
   7.0408094  28.2833814  67.2948315  19.9494070  41.3087999  70.8077996
  20.5012378  41.4719621  71.5727081  20.2900264  41.8992437  70.1358021
  14.9258563  23.6563149  71.4099880  14.9899890  24.5177980  70.9977278
  14.8625684  23.0437151  70.6772239  14.4010836  25.7286281  75.0572915
  15.0282875  25.3463359  75.6710439  13.5438755  25.5100483  75.4228607
  24.8004944  36.1349257  76.6626650  25.3444848  36.7479215  76.1681605
  24.2191789  36.6928835  77.1793663  11.1776379  27.5362711  60.9891270
  11.4729820  26.6273389  60.9358323  10.2764414  27.5150450  60.6672272
  23.0862457  39.2569975  67.7941678  22.9613597  38.4559714  67.2852623
  23.7441548  39.7516168  67.3055648  14.7070626  25.6118707  66.9718818
  13.9857211  26.2254675  66.8326291  15.4963881  26.1476472  66.8935464
  25.1497366  37.0578995  69.4221228  24.2027701  36.9384346  69.3499555
  25.4980139  36.1701493  69.5047489  17.5096939  22.9473134  73.2459470
  18.0331341  23.1935430  74.0085779  17.2909272  23.7793168  72.8262607
  12.9064220  25.2176808  61.1130595  12.5776926  24.3374187  60.9305701
  13.2603591  25.1624477  62.0006984  22.1543799  36.8531711  65.6225580
  22.0068761  35.9248418  65.8033150  22.9797293  36.8751802  65.1382656
  16.0206043  25.5049778  61.4806072  16.3602116  26.0335699  60.7584681
  16.4678164  25.8430184  62.2564639  25.7577921  37.6760270  66.7090453
  26.6824468  37.4703131  66.5714904  25.5893224  37.4276671  67.6179795
  18.7149484  23.8886829  70.9309140  18.3746304  23.0894642  71.3329820
  18.0088490  24.1888540  70.3585974  19.3665956  20.9736141  69.3836463
  20.1892025  20.4996619  69.2615354  19.6104019  21.7526625  69.8835150
  18.0074190  24.0024400  59.6799365  18.7282553  24.3805652  59.1763082
  17.3839495  24.7213276  59.7834343  22.1505313  24.7069549  60.6157698
  22.3668928  25.5894186  60.3146526  21.6699380  24.3155762  59.8863339
  16.8904535  27.6655262  67.1928442  16.7449115  27.9795565  68.0852724
  16.4129738  28.2840162  66.6399341  18.7500918  24.6557810  67.2409332
  18.7362486  23.7598903  66.9041630  19.4673346  24.6628473  67.8747618
  20.6027048  25.0895150  69.2862459  20.3444826  26.0112221  69.2846790
  20.0712089  24.6925584  69.9762923  25.5473237  38.1945937  62.0652544
  25.7210115  37.6292360  61.3126397  26.0402128  38.9946832  61.8832034
  11.3650197  30.2060606  70.1316103  10.8203665  30.9820414  70.2636378
  12.2429547  30.5531411  69.9735225  18.1537814  23.5372190  62.5096902
  18.2753725  22.6088836  62.7087789  17.8639856  23.5510876  61.5975217
  21.0229004  21.2227100  65.6463622  21.0450701  21.2866434  64.6915601
  21.4397063  20.3831609  65.8404128  31.4012628  30.9582360  63.6842844
  31.8443774  30.2089685  63.2861967  30.5239139  30.9492496  63.3016576
  26.5348410  37.5112701  59.1649443  27.2299314  38.1319394  59.3836757
  26.8771560  36.6608053  59.4401821  12.1516219  29.3330502  73.0246260
  11.4097955  29.4813138  73.6110891  11.8308963  29.5938768  72.1613010
  28.4339833  34.9612407  60.6936774  28.9591157  35.2999680  59.9686094
  28.3462185  34.0259422  60.5099908  20.0959881  38.8746481  72.8226650
  20.4047008  38.6295627  73.6949350  20.8935363  39.0793119  72.3345520
  20.1180493  41.0284390  65.0532027  19.6785484  40.5360769  65.7464883
  20.8688610  40.4857358  64.8124102  12.5972832  37.2195931  65.0556655
  13.4230852  36.9199703  64.6755298  12.2466884  36.4503554  65.5046443
  17.5654366  36.5722399  67.1254328  16.9434375  35.9093104  66.8256556
  18.2359232  36.5983531  66.4427976  10.7981437  35.1382258  66.0145588
   9.9613346  34.7104432  65.8329590  10.7705083  35.3314701  66.9516380
  17.6378893  25.0504187  76.7186834  17.6867049  25.9266310  76.3364604
  18.1801407  24.5081580  76.1458478  28.1233739  35.5945311  75.9987971
  27.3329282  35.5769449  75.4592471  27.8867093  36.1333604  76.7537008
  28.2431614  32.4437777  73.3120700  28.2929619  32.2787784  74.2536223
  28.1345537  31.5765036  72.9218581  17.1267872  35.1226323  60.6012789
  17.2755993  35.8061787  59.9479462  17.9334316  35.1031413  61.1162245
  25.5335376  28.4268705  74.6280007  26.4345239  28.2875170  74.3364005
  25.6083351  28.5923160  75.5678184  19.8678182  25.8035560  73.4733193
  18.9981491  26.0969126  73.2015782  20.1037662  26.3876005  74.1940457
  29.7449811  34.8634719  73.5562722  29.4534619  35.2264699  74.3926183
  29.1321942  34.1501727  73.3776054  30.9445493  32.4287598  66.0765292
  31.7792384  32.8677402  66.2402852  31.0804622  31.9526252  65.2573538
  27.9936999  29.9867333  72.0242780  28.4691120  30.1794979  71.2161631
  27.0702564  30.0426519  71.7786163  14.8820505  31.1491500  61.6073858
  14.6366547  30.2453830  61.8054068  15.0516420  31.1508651  60.6653336
  22.5717215  22.0215177  70.9898613  23.0899159  22.7576204  70.6645102
  22.2172348  22.3279170  71.8245373  14.1516153  26.8819858  59.1060019
  13.4585398  26.9564213  58.4500055  13.9067905  26.1180202  59.6281536
  22.8229810  18.4415459  66.5099510  23.1031563  17.7738648  67.1359937
  23.6080416  18.6344555  65.9974174  20.6263278  37.6174453  58.0724536
  20.0537245  38.2364640  57.6195008  21.1996072  38.1673815  58.6064458
  26.6938668  26.8633093  70.2571085  27.6456091  26.9631191  70.2783309
  26.5242118  26.0711362  70.7669170  24.7153047  23.9488676  70.4430486
  24.1202979  24.2293689  69.7476975  24.4302744  24.4382577  71.2147227
  23.8460538  37.9011603  59.2033119  24.7791211  37.8357165  59.4065994
  23.7583751  38.7367870  58.7447651  26.4748554  37.2177474  56.1637066
  26.3962186  36.8837337  57.0572824  27.2958221  37.7099242  56.1628539
  29.1726746  30.0839213  69.3713385  29.1403066  29.1455214  69.5573069
  29.7827369  30.1623250  68.6379210  21.0110077  28.9535266  55.4140589
  21.9569181  28.8241474  55.4829007  20.6324321  28.2149928  55.8910017
  29.3221234  26.8750256  69.4171668  28.8060283  26.0908713  69.2301597
  30.2061183  26.5468973  69.5818187  26.9831961  20.6191272  65.3767481
  26.7856782  20.3106360  66.2610813  27.5931667  21.3452911  65.5065411
  34.9903296  31.1455220  68.5119422  35.7206684  30.8840508  69.0727125
  34.3810241  30.4083942  68.5521490  33.0718593  29.2863082  69.1093873
  32.3451756  29.1519047  68.5010364  32.6565880  29.5939911  69.9150591
  20.8948769  33.0053012  76.8741246  21.8151779  33.1831611  77.0681292
  20.8598352  32.0609057  76.7220945  19.1952994  26.8785242  55.3495474
  18.2884449  26.5818355  55.4258188  19.4728975  26.5815060  54.4829760
  10.1130934  28.1991606  65.7994520   9.7933718  27.3456914  65.5068894
   9.5664362  28.4140184  66.5552488  13.8910842  30.9154047  69.5164027
  14.1096851  31.8471155  69.5352061  14.3036615  30.5562021  70.3018831
  20.8115059  21.4222132  61.5039715  20.0015788  21.0769217  61.8794961
  21.4999476  21.1129676  62.0927327  22.7405608  20.5000179  63.1264012
  23.2936646  20.9195632  63.7854035  22.9775694  19.5735927  63.1686968
  18.7638707  26.4887252  78.9066776  18.6635434  27.4381609  78.8378867
  18.5460249  26.1605491  78.0342846  17.9651778  23.7372178  55.4907453
  18.8270942  24.0627076  55.7503271  18.1502122  22.9503673  54.9780519
   9.9819194  31.8194517  67.7687642   9.2882665  31.4048470  67.2557596
  10.7292185  31.8615054  67.1721061  26.1184415  22.6100704  62.6342676
  25.5383084  23.2685508  62.2520729  25.8520347  21.7878049  62.2230094
  24.5687981  22.0105762  64.8363997  25.0687760  22.1222296  64.0278315
  25.2123589  21.7066815  65.4764805  18.6269977  29.9184391  77.7231838
  18.1437059  30.7184751  77.9295727  18.7130916  29.9292336  76.7699282
  11.8955937  31.7512771  65.6453657  11.8726625  31.8500458  64.6935540
  12.2056573  32.5977922  65.9670823  14.5543314  33.8088926  69.7600271
  15.5086568  33.7772868  69.6930203  14.3555838  33.3479550  70.5750497
  15.1442697  32.3790042  72.3271069  15.9635586  32.8734121  72.3505906
  15.4179504  31.4622010  72.2988637  24.9009293  24.7700794  61.6899025
  24.0135148  25.0550445  61.4719219  25.3163282  24.6094558  60.8426301
  28.2523829  24.7947315  65.4053364  29.0284219  25.2843768  65.6777981
  27.5271963  25.2205370  65.8625233  30.6896388  25.5074935  66.4627304
  31.2840878  25.2670671  65.7520613  30.7622971  24.7882065  67.0900841
  12.9093543  39.3508546  66.7770469  12.7748011  38.5908946  66.2108467
  12.4925606  40.0749445  66.3099258  24.0452506  34.5345469  55.7847045
  24.7488356  34.7395472  56.4004700  23.3215155  35.1022231  56.0496128
  24.8750317  30.2855330  61.9049315  24.8185518  30.7423882  61.0656947
  25.4278659  29.5246015  61.7272157  28.6855122  26.0745062  62.7299434
  28.4292057  25.6741698  63.5607642  28.0607990  26.7888856  62.6049573
  32.9967460  28.8141135  65.2370726  32.4367018  28.8834325  66.0102288
  32.3910964  28.6382120  64.5170222  16.0662669  40.2477863  66.9888912
  15.9495053  41.1923295  66.8867602  15.2455115  39.9451424  67.3774711
  25.9539204  34.9727998  57.8345505  26.7884808  34.5409197  57.6522979
  25.7923547  34.8010012  58.7622399  25.6085096  31.4760112  59.2001844
  25.5533900  31.3104383  58.2590288  24.9831151  32.1836144  59.3564034
  10.3977611  26.7128176  73.0263266  11.0436474  26.2027130  73.5150491
  10.1894762  27.4496858  73.6006691  22.9231003  33.7809023  78.5255407
  23.7922163  33.9549676  78.1642042  22.4437755  34.6003440  78.4031136
  18.9181221  20.9768221  58.7787162  18.9059891  21.9210060  58.9355433
  19.8104643  20.7938366  58.4846623  17.0917183  40.9006124  70.2044840
  17.9944430  40.9329735  70.5211335  16.8654553  39.9706575  70.2191176
  18.8470785  39.6537111  66.8654919  17.8966416  39.6538973  66.7519291
  19.1503271  38.9069846  66.3490954  22.7333341  17.5710997  63.0333099
  21.9665737  17.0169484  63.1789781  23.1444046  17.6432866  63.8947251
  14.7375102  23.8595793  77.1238280  15.6006563  23.5032598  77.3341605
  14.1640512  23.5209688  77.8113685  34.5823479  45.4897649  67.9300681
  35.2201889  45.3704397  67.2264021  34.4644322  46.4378493  67.9888633
  31.3913185  45.4425077  67.8662206  31.0531697  45.3266142  66.9782741
  32.2602953  45.0416243  67.8463212  31.8732968  46.5959929  73.8248412
  31.8621609  46.2012727  72.9528915  32.0353608  45.8626002  74.4182183
  34.1364747  43.2149103  65.0053889  34.9227836  42.7968526  64.6544306
  34.4003452  44.1195195  65.1735538  39.5373174  43.1524336  65.9086868
  40.2698346  42.5823553  66.1424697  38.7812530  42.7645937  66.3493373
  37.0598595  36.8645911  70.3681476  36.7281920  37.7341321  70.1442691
  36.4644208  36.5482195  71.0475507  30.7954781  40.6041478  58.1011559
  30.9629183  41.4721714  58.4682030  30.6051950  40.7668759  57.1772848
  36.9527258  41.5840997  67.4474827  36.0444135  41.5156405  67.1533587
  36.9014854  42.0612942  68.2756652  31.0268124  43.0030642  75.3909724
  30.2501458  43.5624562  75.3812588  31.6658687  43.4887425  75.9124594
  38.8188904  39.7857435  69.2252700  38.1763285  40.0789968  68.5792495
  38.3143833  39.6710355  70.0305897  29.2814496  45.8116096  74.9527691
  30.0229181  46.3501140  74.6762514  28.5751482  46.4382384  75.1099243
  34.7569836  47.9545236  73.5499852  35.1653192  47.5127647  72.8054485
  34.0347097  47.3797864  73.8034045  31.1100906  42.8917843  70.9233409
  31.9562101  43.3157256  71.0668058  31.0499543  42.2351467  71.6171972
  34.2600351  40.5522211  72.5814583  34.0161283  41.3064272  72.0448859
  34.5360282  40.9307559  73.4161830  36.2138814  47.0960824  71.2591848
  36.4255709  47.7392583  70.5826230  36.1668562  46.2623140  70.7913779
  33.8165043  39.7078644  68.1628421  32.9549522  40.0059898  68.4545158
  33.8427478  39.9249043  67.2309453  28.0175860  42.9655744  75.7543001
  27.3874520  43.6472025  75.9878398  27.9111948  42.8538825  74.8096139
  23.3120832  42.6327540  66.6808925  22.5219886  42.8885068  66.2049036
  23.8032080  43.4475878  66.7860966  37.3284642  49.9732779  69.4314206
  38.1502086  49.5712966  69.1496887  37.3247045  49.8701013  70.3830322
  21.5958535  42.8858030  69.1123916  21.8466574  43.7705040  69.3781492
  22.1318084  42.7062632  68.3399008  45.4190635  46.3171527  65.7799177
  44.6654343  45.7478926  65.6243182  45.5538176  46.2834192  66.7269812
  27.2956603  37.2676510  78.1168252  26.9023548  36.7142708  78.7915896
  28.1122743  37.5787088  78.5074769  30.2124564  38.6834389  75.7088508
  30.9534277  39.2841542  75.6292971  30.4442486  37.9412027  75.1506551
  25.3565902  43.8690756  73.9866738  25.2419417  42.9676013  74.2873837
  24.5010419  44.1154453  73.6351555  34.1581727  34.7115492  69.9852790
  33.8145996  35.6017133  69.9091901  34.5260689  34.5217149  69.1222375
  31.7079120  39.5473804  63.5510464  30.8520717  39.1580654  63.3716102
  32.1206072  39.6265764  62.6910249  33.2378267  37.0820147  67.9502023
  32.7343063  37.0450282  67.1369829  33.5308874  37.9912890  68.0098680
  29.4821153  37.1658877  66.9568205  30.3474150  36.9701685  66.5974095
  29.5498662  36.9369228  67.8837562  33.9118312  42.5751195  60.3185006
  33.6068448  42.8897344  61.1695150  34.8648755  42.6532615  60.3612339
  27.0883472  39.3961084  64.3284572  27.6627224  39.1736266  63.5957765
  27.6754454  39.4649779  65.0813173  36.1463049  45.2834811  65.1348948
  36.6594931  45.9164803  65.6370658  36.7964273  44.6836007  64.7692308
  27.4153059  41.4265546  58.3480457  26.5790371  41.7640232  58.6689732
  27.2757829  41.2914525  57.4107594  29.3906140  36.2702333  63.0559641
  28.7370552  35.9551351  62.4316256  29.3486614  35.6478074  63.7819464
  32.6243880  42.7584267  67.3807289  31.7066441  42.9799214  67.2228977
  33.0404024  42.8330577  66.5218996  33.4078928  44.1575683  62.5109969
  34.1550747  44.6697080  62.2017091  33.6770517  43.8359735  63.3714363
  35.8557765  41.1932799  64.4928758  35.1180522  40.6810185  64.8239001
  36.1084538  40.7533180  63.6812035  35.9569392  33.9709051  65.0870528
  36.2628269  33.1106414  64.7996443  36.6821997  34.5626671  64.8869522
  33.7657044  43.3481728  72.1851992  34.1206431  43.5753201  73.0446457
  34.4129175  43.6800105  71.5629247  27.6596907  40.4558259  68.9698333
  28.2996286  40.3147018  68.2721296  26.8274437  40.1692773  68.5936935
  24.6625523  40.4258584  63.7471319  24.9232340  41.3403917  63.6380480
  25.4842695  39.9583027  63.8967932  26.1350448  41.8396341  70.9170144
  26.8073502  41.6313703  70.2682793  25.3080235  41.6418427  70.4775376
  32.0376020  38.4658282  72.9335805  31.3903935  39.1648232  72.8400281
  32.8077036  38.8994426  73.3012053  35.4454818  48.7307134  76.0086358
  35.2940325  48.5017686  75.0916442  35.4359498  49.6877736  76.0217703
  32.2140155  46.3039047  70.9932625  33.1432215  46.4550207  70.8201592
  31.7931185  46.3923068  70.1381271  29.1660246  44.8258904  71.1656261
  29.8759865  44.1852096  71.1242879  29.1229554  45.0771799  72.0882442
  27.8789180  41.8124122  72.9851900  27.3426537  41.3614860  73.6373497
  27.2905889  41.9470030  72.2422365  27.2891439  41.2712773  55.5478364
  26.4120906  41.1501574  55.1840611  27.7649192  40.4798851  55.2957253
  18.8093579  46.0589933  65.6419871  19.4964619  45.7451663  65.0540886
  18.6541708  46.9631297  65.3687122  23.6128301  40.9480129  70.0704895
  23.5286490  40.3405799  69.3355305  22.7911008  41.4389148  70.0714391
  33.7852015  39.4333693  65.4375090  34.2820715  38.6803655  65.1176160
  33.0138997  39.4698009  64.8718299  41.6381773  45.1374058  67.0793381
  41.6271649  46.0198774  66.7087314  40.7699152  44.7845609  66.8847918
  30.3686984  41.5751076  65.1646774  29.9984772  41.0222116  65.8527680
  30.8646077  40.9709209  64.6121774  38.2554347  44.0322699  63.5463547
  38.7214800  44.8650691  63.4723850  38.7061848  43.5667681  64.2508806
  36.2271010  36.4003286  67.5854449  35.3134090  36.6307513  67.7536656
  36.6564112  36.4841730  68.4368481  35.9977469  44.5893178  70.0854343
  35.3448919  44.8369086  69.4306795  36.3757849  43.7757316  69.7516820
  32.0465042  45.3312989  76.5720380  31.3705679  45.2307119  77.2422755
  32.8692676  45.1752203  77.0356377  18.3861555  44.1390526  67.9137338
  18.4245655  43.6054117  68.7074456  17.8801848  43.6125732  67.2948315
  25.7652318  38.9855067  71.4099880  25.8293644  39.8469897  70.9977278
  25.7019438  38.3729068  70.6772239  25.2404590  41.0578199  75.0572915
  25.8676629  40.6755276  75.6710439  24.3832509  40.8392401  75.4228607
  35.6398699  51.4641174  76.6626650  36.1838603  52.0771133  76.1681605
  35.0585544  52.0220753  77.1793663  25.5464380  40.9410625  66.9718818
  24.8250966  41.5546592  66.8326291  26.3357636  41.4768390  66.8935464
  28.3490694  38.2765051  73.2459470  28.8725095  38.5227348  74.0085779
  28.1303027  39.1085086  72.8262607  23.7457975  40.5468726  61.1130595
  23.4170681  39.6666105  60.9305701  24.0997345  40.4916395  62.0006984
  26.8599798  40.8341696  61.4806072  27.1995870  41.3627617  60.7584681
  27.3071918  41.1722102  62.2564639  29.5543239  39.2178746  70.9309140
  29.2140059  38.4186559  71.3329820  28.8482245  39.5180457  70.3585974
  30.2059710  36.3028059  69.3836463  31.0285780  35.8288537  69.2615354
  30.4497774  37.0818543  69.8835150  28.8467945  39.3316317  59.6799365
  29.5676307  39.7097570  59.1763082  28.2233249  40.0505194  59.7834343
  32.9899068  40.0361466  60.6157698  33.2062682  40.9186104  60.3146526
  32.5093135  39.6447680  59.8863339  29.5894672  39.9849727  67.2409332
  29.5756241  39.0890821  66.9041630  30.3067100  39.9920391  67.8747618
  31.4420803  40.4187068  69.2862459  31.1838581  41.3404138  69.2846790
  30.9105843  40.0217502  69.9762923  28.9931568  38.8664108  62.5096902
  29.1147479  37.9380754  62.7087789  28.7033610  38.8802794  61.5975217
  31.8622758  36.5519018  65.6463622  31.8844455  36.6158351  64.6915601
  32.2790817  35.7123527  65.8404128  42.2406383  46.2874278  63.6842844
  42.6837529  45.5381603  63.2861967  41.3632893  46.2784414  63.3016576
  22.9909973  44.6622420  73.0246260  22.2491709  44.8105055  73.6110891
  22.6702718  44.9230686  72.1613010  28.4772648  40.3796105  76.7186834
  28.5260803  41.2558228  76.3364604  29.0195162  39.8373498  76.1458478
  39.0825368  47.7729695  73.3120700  39.1323373  47.6079702  74.2536223
  38.9739292  46.9056954  72.9218581  36.3729131  43.7560623  74.6280007
  37.2738993  43.6167088  74.3364005  36.4477105  43.9215078  75.5678184
  30.7071936  41.1327477  73.4733193  29.8375245  41.4261044  73.2015782
  30.9431416  41.7167922  74.1940457  38.8330753  45.3159251  72.0242780
  39.3084875  45.5086897  71.2161631  37.9096319  45.3718437  71.7786163
  33.4110970  37.3507094  70.9898613  33.9292914  38.0868121  70.6645102
  33.0566103  37.6571088  71.8245373  24.9909907  42.2111776  59.1060019
  24.2979152  42.2856131  58.4500055  24.7461659  41.4472119  59.6281536
  33.6623564  33.7707377  66.5099510  33.9425318  33.1030566  67.1359937
  34.4474171  33.9636473  65.9974174  37.5332422  42.1925011  70.2571085
  38.4849845  42.2923109  70.2783309  37.3635873  41.4003279  70.7669170
  35.5546802  39.2780594  70.4430486  34.9596734  39.5585607  69.7476975
  35.2696499  39.7674495  71.2147227  40.0120500  45.4131131  69.3713385
  39.9796820  44.4747131  69.5573069  40.6221124  45.4915167  68.6379210
  40.1614989  42.2042174  69.4171668  39.6454037  41.4200631  69.2301597
  41.0454937  41.8760891  69.5818187  37.8225716  35.9483190  65.3767481
  37.6250537  35.6398278  66.2610813  38.4325421  36.6744829  65.5065411
  45.8297050  46.4747137  68.5119422  46.5600438  46.2132426  69.0727125
  45.2203995  45.7375859  68.5521490  43.9112347  44.6155000  69.1093873
  43.1845511  44.4810965  68.5010364  43.4959634  44.9231829  69.9150591
  31.7342524  48.3344930  76.8741246  32.6545533  48.5123529  77.0681292
  31.6992107  47.3900975  76.7220945  20.9524689  43.5283523  65.7994520
  20.6327473  42.6748832  65.5068894  20.4058117  43.7432102  66.5552488
  31.6508814  36.7514050  61.5039715  30.8409542  36.4061135  61.8794961
  32.3393231  36.4421593  62.0927327  33.5799362  35.8292097  63.1264012
  34.1330401  36.2487550  63.7854035  33.8169449  34.9027845  63.1686968
  29.6032461  41.8179170  78.9066776  29.5029188  42.7673527  78.8378867
  29.3854003  41.4897409  78.0342846  28.8045533  39.0664095  55.4907453
  29.6664697  39.3918994  55.7503271  28.9895877  38.2795591  54.9780519
  20.8212949  47.1486435  67.7687642  20.1276420  46.7340388  67.2557596
  21.5685940  47.1906971  67.1721061  36.9578169  37.9392622  62.6342676
  36.3776838  38.5977426  62.2520729  36.6914102  37.1169966  62.2230094
  35.4081736  37.3397679  64.8363997  35.9081514  37.4514214  64.0278315
  36.0517344  37.0358732  65.4764805  29.4663731  45.2476309  77.7231838
  28.9830813  46.0476669  77.9295727  29.5524671  45.2584254  76.7699282
  35.7403047  40.0992712  61.6899025  34.8528902  40.3842363  61.4719219
  36.1557036  39.9386475  60.8426301  39.0917583  40.1239233  65.4053364
  39.8677974  40.6135685  65.6777981  38.3665718  40.5497287  65.8625233
  41.5290142  40.8366852  66.4627304  42.1234633  40.5962588  65.7520613
  41.6016726  40.1173983  67.0900841  39.5248877  41.4036980  62.7299434
  39.2685811  41.0033616  63.5607642  38.9001745  42.1180774  62.6049573
  43.8361215  44.1433053  65.2370726  43.2760773  44.2126242  66.0102288
  43.2304718  43.9674038  64.5170222  21.2371365  42.0420094  73.0263266
  21.8830229  41.5319048  73.5150491  21.0288516  42.7788775  73.6006691
  33.7624758  49.1100941  78.5255407  34.6315917  49.2841593  78.1642042
  33.2831509  49.9295358  78.4031136  29.7574976  36.3060138  58.7787162
  29.7453646  37.2501978  58.9355433  30.6498398  36.1230284  58.4846623
  33.5727095  32.9002915  63.0333099  32.8059491  32.3461402  63.1789781
  33.9837800  32.9724784  63.8947251  25.5768856  39.1887711  77.1238280
  26.4400318  38.8324516  77.3341605  25.0034267  38.8501606  77.8113685
  56.2610988  76.1481485  67.9300681  56.8989398  76.0288232  67.2264021
  56.1431831  77.0962329  67.9888633  53.0700694  76.1008913  67.8662206
  52.7319206  75.9849978  66.9782741  53.9390462  75.7000078  67.8463212
  53.5520477  77.2543765  73.8248412  53.5409118  76.8596563  72.9528915
  53.7141116  76.5209837  74.4182183  50.2727738  80.0380876  72.7727596
  49.9817604  80.9426507  72.6574262  50.9084723  80.0797404  73.4871665
  51.1983945  77.4157725  69.3628955  51.7947517  77.1913747  68.6485918
  51.2558917  76.6742470  69.9654403  50.7708973  74.8697160  57.1979146
  51.0234494  74.3478681  56.4362609  49.8333532  74.7063306  57.3005830
  55.8152256  73.8732939  65.0053889  56.6015345  73.4552362  64.6544306
  56.0790961  74.7779031  65.1735538  55.9862334  79.3105789  59.7042546
  55.3508167  79.3840415  60.4163451  55.6559740  79.8999388  59.0261625
  61.2160683  73.8108172  65.9086868  61.9485855  73.2407389  66.1424697
  60.4600039  73.4229772  66.3493373  52.8336803  76.2335413  63.1050210
  52.4695010  75.7066034  63.8163132  53.6903919  75.8433882  62.9316696
  58.7386104  67.5229746  70.3681476  58.4069428  68.3925157  70.1442691
  58.1431717  67.2066030  71.0475507  52.4742290  71.2625313  58.1011559
  52.6416692  72.1305549  58.4682030  52.2839459  71.4252595  57.1772848
  55.2317623  79.7242292  69.7677389  54.9318346  80.6267331  69.6593196
  54.8868683  79.4574475  70.6198542  58.6314767  72.2424832  67.4474827
  57.7231644  72.1740240  67.1533587  58.5802363  72.7196777  68.2756652
  52.7055633  73.6614478  75.3909724  51.9288967  74.2208398  75.3812588
  53.3446196  74.1471261  75.9124594  60.4976413  70.4441270  69.2252700
  59.8550794  70.7373804  68.5792495  59.9931342  70.3294191  70.0305897
  58.1516577  74.1904444  59.9138560  59.0634433  74.4231830  59.7386257
  57.6426224  74.7741488  59.3513638  50.9602005  76.4699931  74.9527691
  51.7016689  77.0084975  74.6762514  50.2538991  77.0966220  75.1099243
  56.4357345  78.6129071  73.5499852  56.8440701  78.1711482  72.8054485
  55.7134606  78.0381699  73.8034045  52.7888415  73.5501678  70.9233409
  53.6349610  73.9741092  71.0668058  52.7287052  72.8935303  71.6171972
  56.7586159  79.1730262  67.3052141  56.1295022  79.3375976  66.6028209
  56.3711821  79.5871872  68.0763105  60.6375391  80.1084700  64.6596505
  59.9526429  80.4883601  64.1093538  60.7219241  80.7180027  65.3928453
  55.9387860  71.2106047  72.5814583  55.6948792  71.9648107  72.0448859
  56.2147791  71.5891394  73.4161830  57.8926323  77.7544659  71.2591848
  58.1043218  78.3976419  70.5826230  57.8456071  76.9206976  70.7913779
  55.4952552  70.3662480  68.1628421  54.6337031  70.6643733  68.4545158
  55.5214987  70.5832878  67.2309453  52.3114121  78.9104670  64.5702226
  52.7752467  79.1892373  63.7806849  52.0470919  78.0088115  64.3875317
  49.6963369  73.6239579  75.7543001  49.0662029  74.3055860  75.9878398
  49.5899457  73.5122661  74.8096139  59.0072151  80.6316614  69.4314206
  59.8289595  80.2296802  69.1496887  59.0034554  80.5284849  70.3830322
  52.7728754  80.1800658  71.5874916  52.8373187  80.6421065  72.4233088
  52.0639678  79.5498023  71.7157226  67.0978144  76.9755363  65.7799177
  66.3441852  76.4062761  65.6243182  67.2325685  76.9418027  66.7269812
  48.9744112  67.9260345  78.1168252  48.5811057  67.3726544  78.7915896
  49.7910252  68.2370923  78.5074769  54.1145248  82.4692332  75.5854239
  53.6709103  81.6828710  75.2675143  54.7762462  82.6571482  74.9198129
  48.8732370  83.9988133  70.1114917  49.4239795  83.8705197  69.3391911
  48.0343845  84.2983022  69.7609810  56.2126486  82.7495132  73.6135640
  56.1944962  83.5704013  73.1215909  57.1346406  82.6249207  73.8385781
  52.6699541  80.2639261  74.4559148  53.2027877  79.5027549  74.2258456
  52.1413622  79.9712913  75.1983303  55.8019518  75.3607938  58.4925225
  55.2866142  76.1312543  58.7313613  55.5296827  74.6873074  59.1158287
  60.7753792  78.1140293  60.4278399  59.9983235  77.7751452  59.9833561
  61.4545273  78.1192916  59.7533364  55.5905821  73.2335030  60.3185006
  55.2855957  73.5481179  61.1695150  56.5436264  73.3116450  60.3612339
  54.0352253  79.3925254  61.9677960  53.5073615  78.6578013  61.6551198
  53.5339756  80.1699930  61.7217929  59.0145099  77.5874274  67.0845007
  58.3568774  78.2773535  67.1725135  59.8185498  77.9770706  67.4278993
  57.8250558  75.9418647  65.1348948  58.3382440  76.5748639  65.6370658
  58.4751782  75.3419842  64.7692308  55.0872932  85.9202971  57.8909620
  54.4134631  86.2234668  58.4994577  55.4738754  86.7232051  57.5415077
  54.3031389  73.4168102  67.3807289  53.3853950  73.6383049  67.2228977
  54.7191533  73.4914413  66.5218996  55.0866437  74.8159518  62.5109969
  55.8338256  75.3280915  62.2017091  55.3558026  74.4943571  63.3714363
  53.3593087  77.3118059  59.4936923  52.4504306  77.0277092  59.5909393
  53.3888171  77.7317137  58.6340230  58.5912354  80.9224648  63.2628091
  58.1374681  80.0815558  63.3193282  57.9606321  81.5586047  63.6002871
  57.0345294  82.7601145  64.1977909  57.3268268  83.3206202  63.4790275
  57.5443914  83.0529706  64.9531068  51.9978919  83.5381496  65.2871362
  51.9555098  83.7642342  64.3579894  52.9141618  83.3044871  65.4357164
  55.4444553  74.0065564  72.1851992  55.7993940  74.2337037  73.0446457
  56.0916684  74.3383940  71.5629247  61.1742289  77.1283999  62.8901321
  61.0360188  77.3185595  61.9622510  60.8178508  77.8903382  63.3469372
  61.2011669  79.1960526  67.9012592  61.6348176  79.1035815  68.7495646
  61.9143250  79.1718027  67.2632608  54.9339564  82.7962621  69.4345693
  54.9876586  83.3653557  70.2023409  54.0654345  82.9664506  69.0699730
  62.0627219  79.2384227  70.4345478  62.2563109  80.1430038  70.6804752
  61.9627837  78.7791646  71.2684063  57.1242327  79.3890970  76.0086358
  56.9727834  79.1601521  75.0916442  57.1147007  80.3461571  76.0217703
  53.8927664  76.9622883  70.9932625  54.8219724  77.1134042  70.8201592
  53.4718694  77.0506903  70.1381271  52.6915995  80.9873547  68.7631162
  52.5527081  80.6192331  69.6357100  51.9030592  81.5021186  68.5915120
  54.2421211  80.3655150  66.1520000  53.9071043  80.3255920  67.0477650
  53.7425156  79.6999866  65.6790410  57.1780402  77.7111184  56.4257060
  56.5609573  76.9858012  56.3290112  56.7096891  78.4720544  56.0824134
  50.8447755  75.4842739  71.1656261  51.5547374  74.8435931  71.1242879
  50.8017063  75.7355634  72.0882442  58.8334534  82.4210092  74.0862840
  58.7747080  81.7369312  73.4193423  59.2354052  83.1629082  73.6343466
  47.8525233  89.2372006  66.8796559  48.0921831  89.8690530  67.5575577
  47.0094429  88.8860046  67.1661918  58.8351941  80.3849676  72.3176820
  57.9478720  80.0475598  72.4403219  59.4050492  79.6532708  72.5545585
  52.3653095  85.0451129  69.2838063  52.2923266  85.8506100  69.7957367
  51.9230488  85.2443094  68.4586084  63.3169282  75.7957894  67.0793381
  63.3059158  76.6782609  66.7087314  62.4486661  75.4429444  66.8847918
  54.8251778  84.9437963  71.4396222  55.5379750  85.5785427  71.3672123
  54.3341807  85.0401829  70.6236223  56.5469305  78.8489215  63.0113513
  55.6125584  78.9690678  62.8418218  56.7245974  77.9461682  62.7473523
  59.9341856  74.6906535  63.5463547  60.4002309  75.5234526  63.4723850
  60.3849357  74.2251516  64.2508806  49.8763692  82.6932406  72.2601792
  50.5773151  83.3268889  72.4131187  49.4058807  83.0347138  71.4997432
  58.0018088  81.0350356  60.5449699  58.2777931  80.9206951  61.4543573
  57.1322586  80.6367841  60.5061872  57.6764978  75.2477014  70.0854343
  57.0236428  75.4952921  69.4306795  58.0545358  74.4341152  69.7516820
  54.6372152  85.2836707  64.1882513  54.8194546  84.4658363  64.6510265
  55.4605138  85.5004399  63.7507403  54.9714317  84.2104892  61.4497561
  55.5002083  83.6997346  60.8367724  55.2342537  83.8947422  62.3143095
  53.7252551  75.9896825  76.5720380  53.0493188  75.8890954  77.2422755
  54.5480185  75.8336038  77.0356377  52.4675334  87.2963752  70.8077996
  53.0193642  87.4595374  71.5727081  52.8081527  87.8868190  70.1358021
  57.3186208  82.1225010  76.6626650  57.8626112  82.7354968  76.1681605
  56.7373053  82.6804588  77.1793663  55.6043721  85.2445728  67.7941678
  55.4794860  84.4435467  67.2852623  56.2622812  85.7391921  67.3055648
  57.6678629  83.0454748  69.4221228  56.7208965  82.9260099  69.3499555
  58.0161402  82.1577246  69.5047489  54.6725063  82.8407464  65.6225580
  54.5250025  81.9124171  65.8033150  55.4978556  82.8627555  65.1382656
  58.2759184  83.6636023  66.7090453  59.2005732  83.4578884  66.5714904
  58.1074488  83.4152424  67.6179795  53.1208312  71.0770903  69.2862459
  52.8626090  71.9987974  69.2846790  52.5893352  70.6801338  69.9762923
  58.0654501  84.1821690  62.0652544  58.2391378  83.6168113  61.3126397
  58.5583392  84.9822585  61.8832034  63.9193892  76.9458113  63.6842844
  64.3625038  76.1965438  63.2861967  63.0420402  76.9368249  63.3016576
  59.0529673  83.4988455  59.1649443  59.7480578  84.1195147  59.3836757
  59.3952823  82.6483806  59.4401821  60.9521096  80.9488160  60.6936774
  61.4772420  81.2875433  59.9686094  60.8643449  80.0135175  60.5099908
  52.6141145  84.8622234  72.8226650  52.9228271  84.6171380  73.6949350
  53.4116627  85.0668872  72.3345520  50.0835629  82.5598152  67.1254328
  49.4615638  81.8968857  66.8256556  50.7540496  82.5859284  66.4427976
  60.6415002  81.5821064  75.9987971  59.8510546  81.5645203  75.4592471
  60.4048357  82.1209357  76.7537008  60.7612877  78.4313530  73.3120700
  60.8110882  78.2663537  74.2536223  60.6526801  77.5640789  72.9218581
  58.0516640  74.4144458  74.6280007  58.9526502  74.2750923  74.3364005
  58.1264614  74.5798913  75.5678184  62.2631074  80.8510472  73.5562722
  61.9715882  81.2140452  74.3926183  61.6503205  80.1377480  73.3776054
  63.4626756  78.4163351  66.0765292  64.2973648  78.8553155  66.2402852
  63.5985885  77.9402005  65.2573538  60.5118262  75.9743086  72.0242780
  60.9872384  76.1670733  71.2161631  59.5883828  76.0302272  71.7786163
  59.2119931  72.8508846  70.2571085  60.1637354  72.9506944  70.2783309
  59.0423382  72.0587115  70.7669170  57.2334311  69.9364429  70.4430486
  56.6384243  70.2169442  69.7476975  56.9484008  70.4258330  71.2147227
  56.3641801  83.8887356  59.2033119  57.2972474  83.8232918  59.4065994
  56.2765014  84.7243623  58.7447651  58.9929818  83.2053227  56.1637066
  58.9143449  82.8713090  57.0572824  59.8139485  83.6974995  56.1628539
  61.6908009  76.0714966  69.3713385  61.6584329  75.1330967  69.5573069
  62.3008633  76.1499003  68.6379210  53.5291340  74.9411019  55.4140589
  54.4750445  74.8117227  55.4829007  53.1505585  74.2025681  55.8910017
  61.8402498  72.8626009  69.4171668  61.3241546  72.0784466  69.2301597
  62.7242446  72.5344726  69.5818187  67.5084559  77.1330973  68.5119422
  68.2387947  76.8716261  69.0727125  66.8991504  76.3959695  68.5521490
  65.5899856  75.2738835  69.1093873  64.8633020  75.1394800  68.5010364
  65.1747143  75.5815664  69.9150591  53.4130033  78.9928765  76.8741246
  54.3333042  79.1707364  77.0681292  53.3779616  78.0484810  76.7220945
  51.7134257  72.8660995  55.3495474  50.8065713  72.5694108  55.4258188
  51.9910238  72.5690813  54.4829760  51.2819970  72.4763005  78.9066776
  51.1816697  73.4257362  78.8378867  51.0641512  72.1481244  78.0342846
  51.1451240  75.9060144  77.7231838  50.6618322  76.7060504  77.9295727
  51.2312179  75.9168089  76.7699282  47.6623960  78.3665795  72.3271069
  48.4816849  78.8609874  72.3505906  47.9360768  77.4497763  72.2988637
  60.7705092  70.7823068  65.4053364  61.5465483  71.2719521  65.6777981
  60.0453227  71.2081123  65.8625233  63.2077651  71.4950688  66.4627304
  63.8022142  71.2546424  65.7520613  63.2804235  70.7757818  67.0900841
  56.5633770  80.5221222  55.7847045  57.2669620  80.7271225  56.4004700
  55.8396418  81.0897984  56.0496128  57.3931580  76.2731083  61.9049315
  57.3366781  76.7299635  61.0656947  57.9459922  75.5121768  61.7272157
  61.2036386  72.0620815  62.7299434  60.9473320  71.6617451  63.5607642
  60.5789254  72.7764609  62.6049573  65.5148724  74.8016888  65.2370726
  64.9548282  74.8710078  66.0102288  64.9092227  74.6257873  64.5170222
  48.5843933  86.2353616  66.9888912  48.4676317  87.1799048  66.8867602
  47.7636379  85.9327177  67.3774711  58.4720467  80.9603751  57.8345505
  59.3066071  80.5284950  57.6522979  58.3104810  80.7885765  58.7622399
  58.1266359  77.4635865  59.2001844  58.0715163  77.2980136  58.2590288
  57.5012415  78.1711897  59.3564034  55.4412266  79.7684776  78.5255407
  56.3103426  79.9425429  78.1642042  54.9619018  80.5879193  78.4031136
  49.6098447  86.8881877  70.2044840  50.5125693  86.9205488  70.5211335
  49.3835817  85.9582328  70.2191176  51.3652049  85.6412864  66.8654919
  50.4147680  85.6414726  66.7519291  51.6684535  84.8945599  66.3490954
  67.1004742  91.4773402  67.9300681  67.7383152  91.3580150  67.2264021
  66.9825585  92.4254246  67.9888633  63.9094449  91.4300830  67.8662206
  63.5712960  91.3141895  66.9782741  64.7784217  91.0291996  67.8463212
  59.7681264  93.2836307  63.8559097  59.2046129  93.1926244  63.0875385
  59.6533659  92.4636211  64.3361589  64.3914232  92.5835682  73.8248412
  64.3802872  92.1888480  72.9528915  64.5534871  91.8501755  74.4182183
  57.3145696  94.7787498  66.6943317  58.1066988  94.4378323  66.2789617
  57.5542346  94.8882474  67.6145471  65.3480823  96.9507275  59.1673562
  64.6968803  97.5361355  58.7807576  66.1425186  97.4813470  59.2268599
  59.2736450  94.0396412  59.5660696  60.0467326  93.4925399  59.4273572
  59.6261849  94.9040661  59.7775158  61.1121493  95.3672794  72.7727596
  60.8211359  96.2718425  72.6574262  61.7478477  95.4089322  73.4871665
  62.0377699  92.7449643  69.3628955  62.6341272  92.5205665  68.6485918
  62.0952671  92.0034388  69.9654403  61.6102728  90.1989078  57.1979146
  61.8628249  89.6770599  56.4362609  60.6727287  90.0355223  57.3005830
  66.6546011  89.2024856  65.0053889  67.4409100  88.7844279  64.6544306
  66.9184715  90.1070948  65.1735538  66.8256088  94.6397707  59.7042546
  66.1901921  94.7132333  60.4163451  66.4953494  95.2291305  59.0261625
  72.0554438  89.1400089  65.9086868  72.7879610  88.5699306  66.1424697
  71.2993794  88.7521690  66.3493373  61.3299017  92.1017184  59.4003521
  61.2135275  91.4262087  60.0684605  61.4401277  91.6149558  58.5835674
  63.6730558  91.5627331  63.1050210  63.3088765  91.0357952  63.8163132
  64.5297673  91.1725800  62.9316696  69.5779858  82.8521664  70.3681476
  69.2463183  83.7217074  70.1442691  68.9825472  82.5357948  71.0475507
  63.3136045  86.5917231  58.1011559  63.4810447  87.4597467  58.4682030
  63.1233214  86.7544512  57.1772848  66.0711378  95.0534210  69.7677389
  65.7712101  95.9559248  69.6593196  65.7262437  94.7866393  70.6198542
  59.5223859  91.5048006  65.8014094  58.5974356  91.3724220  66.0091785
  59.7708272  92.2842226  66.2984036  69.4708522  87.5716750  67.4474827
  68.5625399  87.5032158  67.1533587  69.4196117  88.0488695  68.2756652
  63.2925265  89.0474888  59.0858226  63.1724891  89.4931939  59.9243706
  62.5977854  89.3960206  58.5271764  56.8832670  91.1481280  66.6357883
  57.0125051  91.4015759  67.5497294  56.2030122  91.7408988  66.3162538
  61.0532158 101.8178530  62.7348357  60.9756187 102.7686355  62.8136837
  60.4493801 101.4724402  63.3923283  63.5449387  88.9906395  75.3909724
  62.7682721  89.5500315  75.3812588  64.1839950  89.4763178  75.9124594
  71.3370168  85.7733188  69.2252700  70.6944548  86.0665721  68.5792495
  70.8325096  85.6586108  70.0305897  68.9910332  89.5196361  59.9138560
  69.9028188  89.7523748  59.7386257  68.4819979  90.1033406  59.3513638
  61.7995760  91.7991849  74.9527691  62.5410444  92.3376893  74.6762514
  61.0932745  92.4258137  75.1099243  67.2751099  93.9420989  73.5499852
  67.6834455  93.5003400  72.8054485  66.5528361  93.3673617  73.8034045
  63.6282169  88.8793596  70.9233409  64.4743364  89.3033009  71.0668058
  63.5680807  88.2227220  71.6171972  67.5979914  94.5022180  67.3052141
  66.9688776  94.6667894  66.6028209  67.2105576  94.9163789  68.0763105
  71.4769146  95.4376618  64.6596505  70.7920184  95.8175519  64.1093538
  71.5612995  96.0471944  65.3928453  66.7781615  86.5397964  72.5814583
  66.5342546  87.2940025  72.0448859  67.0541545  86.9183312  73.4161830
  68.7320077  93.0836577  71.2591848  68.9436973  93.7268337  70.5826230
  68.6849826  92.2498893  70.7913779  66.3346306  85.6954397  68.1628421
  65.4730785  85.9935651  68.4545158  66.3608741  85.9124796  67.2309453
  63.1507876  94.2396588  64.5702226  63.6146221  94.5184291  63.7806849
  62.8864674  93.3380032  64.3875317  60.0431957  93.7868069  67.5081990
  60.6133314  94.2155338  66.8699474  60.6340069  93.5050654  68.2066175
  62.0876762  90.3619740  61.3791791  62.7900805  90.8140784  61.8465718
  61.7557390  89.7203559  62.0071685  60.5357123  88.9531497  75.7543001
  59.9055784  89.6347778  75.9878398  60.4293211  88.8414578  74.8096139
  55.8302096  88.6203293  66.6808925  55.0401150  88.8760821  66.2049036
  56.3213343  89.4351631  66.7860966  69.8465905  95.9608532  69.4314206
  70.6683349  95.5588719  69.1496887  69.8428308  95.8576766  70.3830322
  57.7816841  88.9847872  63.6392402  56.9848004  89.0966566  64.1575897
  57.5542433  89.3234524  62.7733292  63.6122509  95.5092575  71.5874916
  63.6766941  95.9712983  72.4233088  62.9033433  94.8789940  71.7157226
  54.1139799  88.8733783  69.1123916  54.3647837  89.7580793  69.3781492
  54.6499347  88.6938385  68.3399008  77.9371898  92.3047281  65.7799177
  77.1835607  91.7354679  65.6243182  78.0719440  92.2709945  66.7269812
  63.3270526  97.1760683  61.4553897  63.1916201  98.0212219  61.8838744
  63.8680339  97.3779960  60.6919830  59.8137866  83.2552263  78.1168252
  59.4204812  82.7018461  78.7915896  60.6304006  83.5662841  78.5074769
  56.7799924  94.6936121  62.0281822  57.2924444  95.4879371  62.1787386
  57.4322637  93.9962411  61.9615423  58.5894809  97.8101877  64.1104575
  58.7661437  98.7319842  63.9225559  59.3851642  97.4960296  64.5398955
  62.7305827  84.6710142  75.7088508  63.4715540  85.2717295  75.6292971
  62.9623750  83.9287780  75.1506551  57.8747165  89.8566509  73.9866738
  57.7600680  88.9551766  74.2873837  57.0191683  90.1030206  73.6351555
  64.9539003  97.7984249  75.5854239  64.5102857  97.0120628  75.2675143
  65.6156216  97.9863400  74.9198129  59.7126124  99.3280051  70.1114917
  60.2633549  99.1997114  69.3391911  58.8737600  99.6274940  69.7609810
  67.0520241  98.0787049  73.6135640  67.0338716  98.8995930  73.1215909
  67.9740161  97.9541124  73.8385781  63.5093295  95.5931179  74.4559148
  64.0421632  94.8319467  74.2258456  62.9807376  95.3004831  75.1983303
  66.6762990  80.6991245  69.9852790  66.3327259  81.5892886  69.9091901
  67.0441953  80.5092902  69.1222375  54.7448841  93.0224775  62.8041392
  55.5824063  93.4321784  62.5875100  54.9227108  92.0824217  62.7741586
  66.6413273  90.6899856  58.4925225  66.1259896  91.4604460  58.7313613
  66.3690581  90.0164992  59.1158287  64.2260384  85.5349557  63.5510464
  63.3701980  85.1456407  63.3716102  64.6387336  85.6141517  62.6910249
  65.7559530  83.0695900  67.9502023  65.2524326  83.0326035  67.1369829
  66.0490137  83.9788643  68.0098680  62.0002416  83.1534630  66.9568205
  62.8655413  82.9577438  66.5974095  62.0679925  82.9244981  67.8837562
  71.6147547  93.4432210  60.4278399  70.8376990  93.1043370  59.9833561
  72.2939028  93.4484834  59.7533364  66.4299576  88.5626948  60.3185006
  66.1249711  88.8773097  61.1695150  67.3830018  88.6408368  60.3612339
  64.8746008  94.7217171  61.9677960  64.3467369  93.9869931  61.6551198
  64.3733510  95.4991848  61.7217929  69.8538854  92.9166192  67.0845007
  69.1962528  93.6065453  67.1725135  70.6579253  93.3062624  67.4278993
  59.6064735  85.3836838  64.3284572  60.1808487  85.1612019  63.5957765
  60.1935718  85.4525532  65.0813173  68.6644313  91.2710564  65.1348948
  69.1776194  91.9040556  65.6370658  69.3145536  90.6711760  64.7692308
  59.9334322  87.4141299  58.3480457  59.0971635  87.7515985  58.6689732
  59.7939092  87.2790278  57.4107594  61.9087403  82.2578086  63.0559641
  61.2551815  81.9427104  62.4316256  61.8667877  81.6353827  63.7819464
  63.0198608  92.5397381  54.9712933  62.1125670  92.3086635  55.1704082
  63.5169640  91.7435001  55.1586915  65.9266687 101.2494889  57.8909620
  65.2528386 101.5526585  58.4994577  66.3132509 102.0523969  57.5415077
  65.1425143  88.7460020  67.3807289  64.2247705  88.9674967  67.2228977
  65.5585287  88.8206330  66.5218996  65.9260191  90.1451436  62.5109969
  66.6732010  90.6572833  62.2017091  66.1951781  89.8235488  63.3714363
  64.1986841  92.6409976  59.4936923  63.2898061  92.3569009  59.5909393
  64.2281925  93.0609055  58.6340230  69.4306109  96.2516566  63.2628091
  68.9768436  95.4107476  63.3193282  68.8000075  96.8877964  63.6002871
  68.3739028  87.1808552  64.4928758  67.6361785  86.6685938  64.8239001
  68.6265802  86.7408934  63.6812035  67.8739048  98.0893063  64.1977909
  68.1662022  98.6498120  63.4790275  68.3837669  98.3821624  64.9531068
  68.4750656  79.9584804  65.0870528  68.7809532  79.0982167  64.7996443
  69.2003260  80.5502424  64.8869522  54.7675012  90.3615490  63.4752126
  54.5699412  89.7684851  62.7503192  54.2121676  90.0567701  64.1928064
  62.7471735  90.2538597  65.5946719  62.8020345  89.3012433  65.5189195
  61.9362937  90.4098036  66.0788017  63.8962929  94.1818720  56.8325002
  63.4582359  93.4654579  56.3730639  64.6373370  94.4094835  56.2710093
  60.6864095  88.8715657  63.3537098  59.8731961  89.1709827  63.7602290
  61.1823090  88.4771345  64.0711580  62.8372673  98.8673414  65.2871362
  62.7948852  99.0934260  64.3579894  63.7535372  98.6336788  65.4357164
  66.2838307  89.3357481  72.1851992  66.6387695  89.5628954  73.0446457
  66.9310438  89.6675858  71.5629247  72.0136044  92.4575917  62.8901321
  71.8753943  92.6477513  61.9622510  71.6572263  93.2195300  63.3469372
  60.1778170  86.4434012  68.9698333  60.8177549  86.3022771  68.2721296
  59.3455701  86.1568526  68.5936935  72.0405424  94.5252444  67.9012592
  72.4741930  94.4327733  68.7495646  72.7537004  94.5009945  67.2632608
  60.9538474  95.7436443  65.0833325  61.7479072  95.2486763  64.8815900
  60.2430166  95.2154306  64.7201031  65.7733318  98.1254538  69.4345693
  65.8270341  98.6945475  70.2023409  64.9048100  98.2956423  69.0699730
  57.2621237  89.8879524  61.1593078  56.3318826  89.8263980  61.3763040
  57.3578709  89.3655477  60.3629719  57.1806787  86.4134337  63.7471319
  57.4413604  87.3279670  63.6380480  58.0023959  85.9458780  63.8967932
  58.6531712  87.8272094  70.9170144  59.3254765  87.6189457  70.2682793
  57.8261498  87.6294180  70.4775376  72.9020973  94.5676145  70.4345478
  73.0956863  95.4721955  70.6804752  72.8021591  94.1083564  71.2684063
  64.5557284  84.4534035  72.9335805  63.9085199  85.1523985  72.8400281
  65.3258299  84.8870179  73.3012053  67.9636082  94.7182887  76.0086358
  67.8121588  94.4893439  75.0916442  67.9540761  95.6753489  76.0217703
  64.7321418  92.2914800  70.9932625  65.6613478  92.4425960  70.8201592
  64.3112448  92.3798821  70.1381271  63.5309750  96.3165465  68.7631162
  63.3920836  95.9484249  69.6357100  62.7424346  96.8313104  68.5915120
  64.1257902 101.4174561  60.1056699  64.3009658 100.9462604  60.9202321
  63.4390690 102.0440327  60.3337959  65.0814965  95.6947067  66.1520000
  64.7464798  95.6547837  67.0477650  64.5818911  95.0291783  65.6790410
  59.0559209  91.1014697  71.6772581  58.9179007  90.3694936  72.2784120
  59.9664133  91.0123597  71.3956769  68.0174157  93.0403102  56.4257060
  67.4003327  92.3149930  56.3290112  67.5490645  93.8012462  56.0824134
  61.6841510  90.8134657  71.1656261  62.3941128  90.1727849  71.1242879
  61.6410818  91.0647552  72.0882442  69.6728288  97.7502010  74.0862840
  69.6140835  97.0661230  73.4193423  70.0747807  98.4921000  73.6343466
  60.3970444  87.7999875  72.9851900  59.8607801  87.3490613  73.6373497
  59.8087152  87.9345783  72.2422365  58.6918987 104.5663924  66.8796559
  58.9315585 105.1982448  67.5575577  57.8488184 104.2151964  67.1661918
  59.8072703  87.2588526  55.5478364  58.9302169  87.1377327  55.1840611
  60.2830456  86.4674604  55.2957253  69.6745696  95.7141594  72.3176820
  68.7872474  95.3767516  72.4403219  70.2444247  94.9824625  72.5545585
  51.3274843  92.0465686  65.6419871  52.0145883  91.7327416  65.0540886
  51.1722972  92.9507050  65.3687122  56.1309565  86.9355882  70.0704895
  56.0467754  86.3281552  69.3355305  55.3092271  87.4264901  70.0714391
  63.2046849 100.3743046  69.2838063  63.1317021 101.1798018  69.7957367
  62.7624242 100.5735012  68.4586084  62.9936629  99.6114816  62.7940884
  62.2104151 100.1536497  62.8879109  63.6929374 100.1288796  63.1935126
  66.3033279  85.4209446  65.4375090  66.8001978  84.6679408  65.1176160
  65.5320260  85.4573762  64.8718299  74.1563036  91.1249811  67.0793381
  74.1452912  92.0074527  66.7087314  73.2880416  90.7721362  66.8847918
  65.6645533 100.2729880  71.4396222  66.3773505 100.9077345  71.3672123
  65.1735561 100.3693746  70.6236223  67.3863060  94.1781133  63.0113513
  66.4519338  94.2982595  62.8418218  67.5639728  93.2753600  62.7473523
  62.8868248  87.5626829  65.1646774  62.5166035  87.0097869  65.8527680
  63.3827340  86.9584962  64.6121774  70.7735611  90.0198452  63.5463547
  71.2396063  90.8526444  63.4723850  71.2243111  89.5543434  64.2508806
  60.7157446  98.0224324  72.2601792  61.4166906  98.6560807  72.4131187
  60.2452561  98.3639055  71.4997432  68.8411842  96.3642274  60.5449699
  69.1171686  96.2498868  61.4543573  67.9716341  95.9659758  60.5061872
  68.7452274  82.3879039  67.5854449  67.8315353  82.6183266  67.7536656
  69.1745375  82.4717483  68.4368481  68.5158732  90.5768931  70.0854343
  67.8630182  90.8244839  69.4306795  68.8939112  89.7633069  69.7516820
  65.4765906 100.6128624  64.1882513  65.6588301  99.7950280  64.6510265
  66.2998892 100.8296317  63.7507403  65.8108072  99.5396810  61.4497561
  66.3395838  99.0289264  60.8367724  66.0736291  99.2239340  62.3143095
  64.5646305  91.3188742  76.5720380  63.8886942  91.2182872  77.2422755
  65.3873939  91.1627956  77.0356377  56.3125164  97.5560679  69.1932895
  56.8978601  96.8104367  69.3260799  56.1150003  97.8664636  70.0769559
  59.1663819 100.5911926  64.2095337  58.4974195 101.0758054  63.7259377
  59.0276689 100.8381147  65.1238716  50.9042819  90.1266279  67.9137338
  50.9426918  89.5929870  68.7074456  50.3983112  89.6001485  67.2948315
  63.3069088 102.6255670  70.8077996  63.8587396 102.7887291  71.5727081
  63.6475281 103.2160108  70.1358021  58.2833581  84.9730820  71.4099880
  58.3474908  85.8345650  70.9977278  58.2200701  84.3604821  70.6772239
  57.7585854  87.0453952  75.0572915  58.3857893  86.6631029  75.6710439
  56.9013773  86.8268154  75.4228607  68.1579962  97.4516927  76.6626650
  68.7019866  98.0646886  76.1681605  67.5766807  98.0096506  77.1793663
  54.5351397  88.8530381  60.9891270  54.8304838  87.9441060  60.9358323
  53.6339432  88.8318121  60.6672272  66.4437475 100.5737645  67.7941678
  66.3188615  99.7727385  67.2852623  67.1016566 101.0683839  67.3055648
  58.0645644  86.9286378  66.9718818  57.3432229  87.5422346  66.8326291
  58.8538899  87.4644143  66.8935464  68.5072384  98.3746665  69.4221228
  67.5602719  98.2552017  69.3499555  68.8555157  97.4869163  69.5047489
  60.8671957  84.2640804  73.2459470  61.3906359  84.5103101  74.0085779
  60.6484290  85.0960839  72.8262607  56.2639238  86.5344479  61.1130595
  55.9351944  85.6541858  60.9305701  56.6178609  86.4792148  62.0006984
  65.5118817  98.1699382  65.6225580  65.3643779  97.2416089  65.8033150
  66.3372310  98.1919472  65.1382656  59.3781061  86.8217449  61.4806072
  59.7177134  87.3503370  60.7584681  59.8253182  87.1597855  62.2564639
  69.1152939  98.9927940  66.7090453  70.0399486  98.7870802  66.5714904
  68.9468242  98.7444341  67.6179795  62.0724502  85.2054499  70.9309140
  61.7321322  84.4062312  71.3329820  61.3663508  85.5056210  70.3585974
  62.7240974  82.2903812  69.3836463  63.5467043  81.8164290  69.2615354
  62.9679037  83.0694296  69.8835150  61.3649208  85.3192070  59.6799365
  62.0857571  85.6973323  59.1763082  60.7414513  86.0380947  59.7834343
  65.5080331  86.0237219  60.6157698  65.7243946  86.9061857  60.3146526
  65.0274398  85.6323433  59.8863339  60.2479553  88.9822932  67.1928442
  60.1024133  89.2963236  68.0852724  59.7704756  89.6007833  66.6399341
  62.1075936  85.9725480  67.2409332  62.0937504  85.0766574  66.9041630
  62.8248364  85.9796144  67.8747618  63.9602066  86.4062821  69.2862459
  63.7019844  87.3279891  69.2846790  63.4287107  86.0093255  69.9762923
  68.9048255  99.5113608  62.0652544  69.0785133  98.9460030  61.3126397
  69.3977146 100.3114503  61.8832034  54.7225215  91.5228277  70.1316103
  54.1778683  92.2988085  70.2636378  55.6004565  91.8699081  69.9735225
  61.5112831  84.8539861  62.5096902  61.6328743  83.9256507  62.7087789
  61.2214874  84.8678547  61.5975217  64.3804022  82.5394771  65.6463622
  64.4025719  82.6034104  64.6915601  64.7972081  81.6999280  65.8404128
  74.7587646  92.2750031  63.6842844  75.2018792  91.5257356  63.2861967
  73.8814157  92.2660167  63.3016576  69.8923428  98.8280372  59.1649443
  70.5874332  99.4487065  59.3836757  70.2346578  97.9775723  59.4401821
  55.5091237  90.6498173  73.0246260  54.7672973  90.7980808  73.6110891
  55.1883981  90.9106439  72.1613010  71.7914851  96.2780078  60.6936774
  72.3166175  96.6167350  59.9686094  71.7037203  95.3427093  60.5099908
  63.4534899 100.1914151  72.8226650  63.7622026  99.9463298  73.6949350
  64.2510381 100.3960790  72.3345520  63.4755511 102.3452061  65.0532027
  63.0360502 101.8528440  65.7464883  64.2263628 101.8025029  64.8124102
  55.9547850  98.5363602  65.0556655  56.7805870  98.2367374  64.6755298
  55.6041902  97.7671224  65.5046443  60.9229384  97.8890070  67.1254328
  60.3009393  97.2260775  66.8256556  61.5934250  97.9151202  66.4427976
  54.1556455  96.4549928  66.0145588  53.3188364  96.0272103  65.8329590
  54.1280101  96.6482372  66.9516380  60.9953911  86.3671858  76.7186834
  61.0442067  87.2433981  76.3364604  61.5376425  85.8249251  76.1458478
  71.4808757  96.9112981  75.9987971  70.6904300  96.8937120  75.4592471
  71.2442111  97.4501275  76.7537008  71.6006632  93.7605448  73.3120700
  71.6504637  93.5955455  74.2536223  71.4920555  92.8932707  72.9218581
  60.4842890  96.4393993  60.6012789  60.6331011  97.1229458  59.9479462
  61.2909334  96.4199083  61.1162245  68.8910394  89.7436376  74.6280007
  69.7920257  89.6042841  74.3364005  68.9658369  89.9090831  75.5678184
  63.2253199  87.1203231  73.4733193  62.3556509  87.4136797  73.2015782
  63.4612680  87.7043676  74.1940457  73.1024829  96.1802389  73.5562722
  72.8109637  96.5432370  74.3926183  72.4896960  95.4669398  73.3776054
  74.3020511  93.7455269  66.0765292  75.1367402  94.1845073  66.2402852
  74.4379640  93.2693922  65.2573538  71.3512017  91.3035004  72.0242780
  71.8266138  91.4962650  71.2161631  70.4277582  91.3594190  71.7786163
  58.2395523  92.4659171  61.6073858  57.9941565  91.5621501  61.8054068
  58.4091438  92.4676322  60.6653336  65.9292233  83.3382847  70.9898613
  66.4474177  84.0743874  70.6645102  65.5747366  83.6446841  71.8245373
  57.5091171  88.1987529  59.1060019  56.8160416  88.2731884  58.4500055
  57.2642923  87.4347872  59.6281536  66.1804827  79.7583130  66.5099510
  66.4606581  79.0906319  67.1359937  66.9655434  79.9512226  65.9974174
  63.9838296  98.9342124  58.0724536  63.4112263  99.5532311  57.6195008
  64.5571090  99.4841486  58.6064458  70.0513686  88.1800764  70.2571085
  71.0031109  88.2798862  70.2783309  69.8817136  87.3879033  70.7669170
  68.0728065  85.2656347  70.4430486  67.4777997  85.5461360  69.7476975
  67.7877762  85.7550248  71.2147227  67.2035556  99.2179274  59.2033119
  68.1366229  99.1524836  59.4065994  67.1158769 100.0535541  58.7447651
  69.8323572  98.5345144  56.1637066  69.7537204  98.2005008  57.0572824
  70.6533239  99.0266912  56.1628539  72.5301764  91.4006884  69.3713385
  72.4978084  90.4622884  69.5573069  73.1402387  91.4790920  68.6379210
  64.3685094  90.2702937  55.4140589  65.3144199  90.1409145  55.4829007
  63.9899339  89.5317599  55.8910017  72.6796252  88.1917927  69.4171668
  72.1635301  87.4076384  69.2301597  73.5636201  87.8636644  69.5818187
  70.3406979  81.9358943  65.3767481  70.1431800  81.6274031  66.2610813
  70.9506685  82.6620582  65.5065411  78.3478313  92.4622890  68.5119422
  79.0781702  92.2008179  69.0727125  77.7385259  91.7251612  68.5521490
  76.4293611  90.6030753  69.1093873  75.7026774  90.4686718  68.5010364
  76.0140897  90.9107582  69.9150591  64.2523787  94.3220683  76.8741246
  65.1726796  94.4999282  77.0681292  64.2173370  93.3776728  76.7220945
  62.5528012  88.1952913  55.3495474  61.6459467  87.8986026  55.4258188
  62.8303993  87.8982731  54.4829760  53.4705952  89.5159276  65.7994520
  53.1508736  88.6624585  65.5068894  52.9239380  89.7307855  66.5552488
  57.2485860  92.2321717  69.5164027  57.4671869  93.1638825  69.5352061
  57.6611633  91.8729692  70.3018831  64.1690077  82.7389803  61.5039715
  63.3590806  82.3936888  61.8794961  64.8574494  82.4297346  62.0927327
  66.0980626  81.8167850  63.1264012  66.6511664  82.2363303  63.7854035
  66.3350712  80.8903598  63.1686968  62.1213725  87.8054923  78.9066776
  62.0210452  88.7549280  78.8378867  61.9035267  87.4773162  78.0342846
  61.3226796  85.0539848  55.4907453  62.1845960  85.3794747  55.7503271
  61.5077140  84.2671344  54.9780519  53.3394212  93.1362188  67.7687642
  52.6457683  92.7216141  67.2557596  54.0867203  93.1782724  67.1721061
  69.4759433  83.9268375  62.6342676  68.8958102  84.5853179  62.2520729
  69.2095365  83.1045719  62.2230094  67.9262999  83.3273432  64.8363997
  68.4262777  83.4389967  64.0278315  68.5698607  83.0234485  65.4764805
  61.9844995  91.2352062  77.7231838  61.5012077  92.0352422  77.9295727
  62.0705934  91.2460007  76.7699282  55.2530955  93.0680442  65.6453657
  55.2301643  93.1668129  64.6935540  55.5631591  93.9145592  65.9670823
  57.9118332  95.1256597  69.7600271  58.8661586  95.0940539  69.6930203
  57.7130856  94.6647220  70.5750497  58.5017715  93.6957713  72.3271069
  59.3210604  94.1901791  72.3505906  58.7754522  92.7789681  72.2988637
  68.2584311  86.0868465  61.6899025  67.3710166  86.3718116  61.4719219
  68.6738300  85.9262228  60.8426301  71.6098847  86.1114986  65.4053364
  72.3859237  86.6011438  65.6777981  70.8846981  86.5373040  65.8625233
  74.0471406  86.8242605  66.4627304  74.6415896  86.5838341  65.7520613
  74.1197989  86.1049736  67.0900841  56.2668561 100.6676216  66.7770469
  56.1323029  99.9076617  66.2108467  55.8500623 101.3917116  66.3099258
  67.4027524  95.8513140  55.7847045  68.1063374  96.0563142  56.4004700
  66.6790173  96.4189902  56.0496128  68.2325334  91.6023001  61.9049315
  68.1760536  92.0591552  61.0656947  68.7853677  90.8413686  61.7272157
  72.0430140  87.3912733  62.7299434  71.7867075  86.9909369  63.5607642
  71.4183008  88.1056527  62.6049573  76.3542478  90.1308806  65.2370726
  75.7942036  90.2001995  66.0102288  75.7485982  89.9549791  64.5170222
  59.4237687 101.5645533  66.9888912  59.3070071 102.5090966  66.8867602
  58.6030133 101.2619095  67.3774711  69.3114222  96.2895669  57.8345505
  70.1459826  95.8576867  57.6522979  69.1498565  96.1177683  58.7622399
  68.9660114  92.7927782  59.2001844  68.9108918  92.6272054  58.2590288
  68.3406169  93.5003815  59.3564034  53.7552629  88.0295847  73.0263266
  54.4011492  87.5194801  73.5150491  53.5469780  88.7664528  73.6006691
  66.2806021  95.0976694  78.5255407  67.1497181  95.2717346  78.1642042
  65.8012772  95.9171111  78.4031136  62.2756239  82.2935891  58.7787162
  62.2634909  83.2377731  58.9355433  63.1679661  82.1106037  58.4846623
  60.4492201 102.2173795  70.2044840  61.3519448 102.2497405  70.5211335
  60.2229571 101.2874246  70.2191176  62.2045803 100.9704782  66.8654919
  61.2541434 100.9706643  66.7519291  62.5078289 100.2237516  66.3490954
  66.0908359  78.8878668  63.0333099  65.3240755  78.3337155  63.1789781
  66.5019064  78.9600537  63.8947251  58.0950120  85.1763464  77.1238280
  58.9581581  84.8200269  77.3341605  57.5215530  84.8377359  77.8113685
  77.9398497 106.8065320  67.9300681  78.5776907 106.6872067  67.2264021
  77.8219340 107.7546164  67.9888633  74.7488203 106.7592748  67.8662206
  74.4106715 106.6433813  66.9782741  75.6177971 106.3583913  67.8463212
  70.6075019 108.6128225  63.8559097  70.0439884 108.5218162  63.0875385
  70.4927414 107.7928129  64.3361589  75.2307986 107.9127600  73.8248412
  75.2196627 107.5180398  72.9528915  75.3928625 107.1793673  74.4182183
  68.1539451 110.1079416  66.6943317  68.9460743 109.7670241  66.2789617
  68.3936101 110.2174391  67.6145471  70.1130205 109.3688329  59.5660696
  70.8861081 108.8217317  59.4273572  70.4655603 110.2332579  59.7775158
  71.9515247 110.6964712  72.7727596  71.6605113 111.6010343  72.6574262
  72.5872231 110.7381239  73.4871665  72.8771454 108.0741560  69.3628955
  73.4735026 107.8497583  68.6485918  72.9346426 107.3326306  69.9654403
  72.4496482 105.5280996  57.1979146  72.7022003 105.0062517  56.4362609
  71.5121041 105.3647141  57.3005830  77.4939765 104.5316774  65.0053889
  78.2802854 104.1136197  64.6544306  77.7578470 105.4362866  65.1735538
  77.6649843 109.9689624  59.7042546  77.0295676 110.0424251  60.4163451
  77.3347249 110.5583223  59.0261625  82.8948192 104.4692007  65.9086868
  83.6273364 103.8991224  66.1424697  82.1387548 104.0813608  66.3493373
  72.1692771 107.4309102  59.4003521  72.0529029 106.7554005  60.0684605
  72.2795031 106.9441475  58.5835674  74.5124312 106.8919249  63.1050210
  74.1482519 106.3649870  63.8163132  75.3691428 106.5017718  62.9316696
  80.4173613  98.1813581  70.3681476  80.0856937  99.0508992  70.1442691
  79.8219226  97.8649865  71.0475507  74.1529799 101.9209148  58.1011559
  74.3204201 102.7889385  58.4682030  73.9626968 102.0836430  57.1772848
  76.9105132 110.3826127  69.7677389  76.6105855 111.2851166  69.6593196
  76.5656192 110.1158310  70.6198542  70.3617614 106.8339924  65.8014094
  69.4368110 106.7016138  66.0091785  70.6102027 107.6134143  66.2984036
  80.3102276 102.9008667  67.4474827  79.4019153 102.8324076  67.1533587
  80.2589872 103.3780612  68.2756652  74.1319020 104.3766806  59.0858226
  74.0118645 104.8223857  59.9243706  73.4371608 104.7252123  58.5271764
  67.7226425 106.4773198  66.6357883  67.8518806 106.7307677  67.5497294
  67.0423876 107.0700906  66.3162538  74.3843142 104.3198313  75.3909724
  73.6076476 104.8792233  75.3812588  75.0233705 104.8055096  75.9124594
  82.1763922 101.1025106  69.2252700  81.5338303 101.3957639  68.5792495
  81.6718851 100.9878026  70.0305897  79.8304086 104.8488279  59.9138560
  80.7421942 105.0815666  59.7386257  79.3213733 105.4325323  59.3513638
  72.6389514 107.1283766  74.9527691  73.3804198 107.6668810  74.6762514
  71.9326500 107.7550055  75.1099243  78.1144854 109.2712907  73.5499852
  78.5228210 108.8295317  72.8054485  77.3922115 108.6965534  73.8034045
  74.4675924 104.2085514  70.9233409  75.3137119 104.6324927  71.0668058
  74.4074561 103.5519138  71.6171972  78.4373668 109.8314097  67.3052141
  77.8082531 109.9959812  66.6028209  78.0499330 110.2455707  68.0763105
  77.6175369 101.8689882  72.5814583  77.3736301 102.6231942  72.0448859
  77.8935300 102.2475230  73.4161830  79.5713832 108.4128494  71.2591848
  79.7830727 109.0560254  70.5826230  79.5243580 107.5790811  70.7913779
  77.1740061 101.0246315  68.1628421  76.3124540 101.3227569  68.4545158
  77.2002495 101.2416714  67.2309453  73.9901630 109.5688506  64.5702226
  74.4539976 109.8476209  63.7806849  73.7258428 108.6671950  64.3875317
  70.8825711 109.1159987  67.5081990  71.4527068 109.5447255  66.8699474
  71.4733823 108.8342572  68.2066175  72.9270516 105.6911658  61.3791791
  73.6294560 106.1432702  61.8465718  72.5951145 105.0495477  62.0071685
  71.3750878 104.2823415  75.7543001  70.7449538 104.9639695  75.9878398
  71.2686966 104.1706496  74.8096139  66.6695850 103.9495211  66.6808925
  65.8794904 104.2052739  66.2049036  67.1607098 104.7643548  66.7860966
  68.6210596 104.3139790  63.6392402  67.8241759 104.4258484  64.1575897
  68.3936188 104.6526442  62.7733292  74.4516263 110.8384493  71.5874916
  74.5160696 111.3004900  72.4233088  73.7427187 110.2081858  71.7157226
  64.9533553 104.2025701  69.1123916  65.2041592 105.0872711  69.3781492
  65.4893102 104.0230303  68.3399008  70.6531621  98.5844180  78.1168252
  70.2598566  98.0310379  78.7915896  71.4697761  98.8954759  78.5074769
  67.6193678 110.0228039  62.0281822  68.1318199 110.8171289  62.1787386
  68.2716391 109.3254329  61.9615423  69.4288563 113.1393795  64.1104575
  69.6055191 114.0611760  63.9225559  70.2245397 112.8252214  64.5398955
  73.5699582 100.0002059  75.7088508  74.3109295 100.6009213  75.6292971
  73.8017504  99.2579697  75.1506551  68.7140920 105.1858427  73.9866738
  68.5994435 104.2843684  74.2873837  67.8585437 105.4322123  73.6351555
  70.5519878 114.6571969  70.1114917  71.1027304 114.5289032  69.3391911
  69.7131354 114.9566858  69.7609810  74.3487050 110.9223096  74.4559148
  74.8815386 110.1611385  74.2258456  73.8201131 110.6296748  75.1983303
  77.5156745  96.0283162  69.9852790  77.1721014  96.9184804  69.9091901
  77.8835707  95.8384820  69.1222375  65.5842595 108.3516693  62.8041392
  66.4217817 108.7613701  62.5875100  65.7620863 107.4116135  62.7741586
  77.4807027 106.0191773  58.4925225  76.9653651 106.7896378  58.7313613
  77.2084336 105.3456910  59.1158287  75.0654138 100.8641474  63.5510464
  74.2095735 100.4748325  63.3716102  75.4781090 100.9433435  62.6910249
  76.5953285  98.3987818  67.9502023  76.0918080  98.3617953  67.1369829
  76.8883892  99.3080560  68.0098680  72.8396171  98.4826547  66.9568205
  73.7049168  98.2869356  66.5974095  72.9073680  98.2536899  67.8837562
  77.2693330 103.8918866  60.3185006  76.9643466 104.2065015  61.1695150
  78.2223773 103.9700285  60.3612339  75.7139762 110.0509089  61.9677960
  75.1861124 109.3161848  61.6551198  75.2127265 110.8283765  61.7217929
  70.4458490 100.7128755  64.3284572  71.0202242 100.4903937  63.5957765
  71.0329472 100.7817450  65.0813173  79.5038067 106.6002482  65.1348948
  80.0169949 107.2332474  65.6370658  80.1539291 106.0003678  64.7692308
  70.7728077 102.7433216  58.3480457  69.9365389 103.0807903  58.6689732
  70.6332847 102.6082196  57.4107594  72.7481158  97.5870004  63.0559641
  72.0945570  97.2719021  62.4316256  72.7061632  96.9645745  63.7819464
  73.8592362 107.8689299  54.9712933  72.9519424 107.6378553  55.1704082
  74.3563394 107.0726918  55.1586915  75.9818898 104.0751938  67.3807289
  75.0641459 104.2966885  67.2228977  76.3979042 104.1498248  66.5218996
  76.7653946 105.4743353  62.5109969  77.5125765 105.9864751  62.2017091
  77.0345535 105.1527406  63.3714363  75.0380596 107.9701894  59.4936923
  74.1291815 107.6860927  59.5909393  75.0675680 108.3900973  58.6340230
  79.2132783 102.5100470  64.4928758  78.4755540 101.9977856  64.8239001
  79.4659556 102.0700851  63.6812035  79.3144410  95.2876722  65.0870528
  79.6203287  94.4274085  64.7996443  80.0397015  95.8794342  64.8869522
  65.6068766 105.6907408  63.4752126  65.4093166 105.0976769  62.7503192
  65.0515430 105.3859618  64.1928064  73.5865490 105.5830515  65.5946719
  73.6414100 104.6304351  65.5189195  72.7756692 105.7389954  66.0788017
  74.7356684 109.5110638  56.8325002  74.2976114 108.7946497  56.3730639
  75.4767125 109.7386753  56.2710093  71.5257850 104.2007574  63.3537098
  70.7125715 104.5001745  63.7602290  72.0216844 103.8063263  64.0711580
  77.1232062 104.6649399  72.1851992  77.4781449 104.8920872  73.0446457
  77.7704193 104.9967776  71.5629247  71.0171925 101.7725930  68.9698333
  71.6571304 101.6314689  68.2721296  70.1849455 101.4860443  68.5936935
  71.7932228 111.0728360  65.0833325  72.5872827 110.5778680  64.8815900
  71.0823921 110.5446223  64.7201031  68.1014992 105.2171442  61.1593078
  67.1712580 105.1555898  61.3763040  68.1972464 104.6947395  60.3629719
  68.0200541 101.7426255  63.7471319  68.2807358 102.6571588  63.6380480
  68.8417713 101.2750697  63.8967932  69.4925466 103.1564012  70.9170144
  70.1648520 102.9481374  70.2682793  68.6655253 102.9586098  70.4775376
  75.3951038  99.7825953  72.9335805  74.7478953 100.4815903  72.8400281
  76.1652054 100.2162097  73.3012053  75.5715173 107.6206718  70.9932625
  76.5007233 107.7717878  70.8201592  75.1506203 107.7090739  70.1381271
  74.3703504 111.6457382  68.7631162  74.2314590 111.2776167  69.6357100
  73.5818101 112.1605022  68.5915120  75.9208720 111.0238985  66.1520000
  75.5858552 110.9839755  67.0477650  75.4212665 110.3583701  65.6790410
  69.8952964 106.4306615  71.6772581  69.7572762 105.6986854  72.2784120
  70.8057887 106.3415515  71.3956769  78.8567911 108.3695019  56.4257060
  78.2397082 107.6441848  56.3290112  78.3884400 109.1304380  56.0824134
  72.5235264 106.1426574  71.1656261  73.2334883 105.5019767  71.1242879
  72.4804572 106.3939469  72.0882442  71.2364198 103.1291792  72.9851900
  70.7001555 102.6782531  73.6373497  70.6480907 103.2637701  72.2422365
  70.6466457 102.5880444  55.5478364  69.7695924 102.4669244  55.1840611
  71.1224210 101.7966522  55.2957253  62.1668597 107.3757603  65.6419871
  62.8539637 107.0619333  65.0540886  62.0116726 108.2798968  65.3687122
  66.9703319 102.2647800  70.0704895  66.8861508 101.6573470  69.3355305
  66.1486026 102.7556818  70.0714391  77.1427033 100.7501363  65.4375090
  77.6395733  99.9971326  65.1176160  76.3714015 100.7865680  64.8718299
  78.2256814 109.5073051  63.0113513  77.2913093 109.6274513  62.8418218
  78.4033482 108.6045517  62.7473523  73.7262002 102.8918746  65.1646774
  73.3559790 102.3389787  65.8527680  74.2221095 102.2876880  64.6121774
  81.6129365 105.3490370  63.5463547  82.0789818 106.1818362  63.4723850
  82.0636866 104.8835352  64.2508806  71.5551201 113.3516241  72.2601792
  72.2560660 113.9852724  72.4131187  71.0846316 113.6930973  71.4997432
  79.5846028  97.7170957  67.5854449  78.6709108  97.9475184  67.7536656
  80.0139130  97.8009401  68.4368481  79.3552487 105.9060849  70.0854343
  78.7023937 106.1536756  69.4306795  79.7332867 105.0924987  69.7516820
  75.4040060 106.6480660  76.5720380  74.7280697 106.5474789  77.2422755
  76.2267694 106.4919874  77.0356377  67.1518919 112.8852597  69.1932895
  67.7372356 112.1396284  69.3260799  66.9543757 113.1956553  70.0769559
  61.7436573 105.4558197  67.9137338  61.7820673 104.9221787  68.7074456
  61.2376866 104.9293402  67.2948315  69.1227336 100.3022737  71.4099880
  69.1868662 101.1637568  70.9977278  69.0594456  99.6896739  70.6772239
  68.5979608 102.3745870  75.0572915  69.2251647 101.9922947  75.6710439
  67.7407527 102.1560072  75.4228607  65.3745151 104.1822299  60.9891270
  65.6698592 103.2732977  60.9358323  64.4733187 104.1610038  60.6672272
  68.9039398 102.2578295  66.9718818  68.1825984 102.8714263  66.8326291
  69.6932654 102.7936060  66.8935464  71.7065712  99.5932722  73.2459470
  72.2300113  99.8395019  74.0085779  71.4878045 100.4252757  72.8262607
  67.1032993 101.8636397  61.1130595  66.7745699 100.9833775  60.9305701
  67.4572363 101.8084065  62.0006984  70.2174816 102.1509366  61.4806072
  70.5570888 102.6795288  60.7584681  70.6646936 102.4889772  62.2564639
  72.9118257 100.5346417  70.9309140  72.5715077  99.7354230  71.3329820
  72.2057263 100.8348128  70.3585974  73.5634728  97.6195729  69.3836463
  74.3860798  97.1456208  69.2615354  73.8072792  98.3986213  69.8835150
  72.2042963 100.6483988  59.6799365  72.9251325 101.0265241  59.1763082
  71.5808267 101.3672865  59.7834343  76.3474086 101.3529137  60.6157698
  76.5637700 102.2353775  60.3146526  75.8668153 100.9615350  59.8863339
  71.0873307 104.3114850  67.1928442  70.9417888 104.6255153  68.0852724
  70.6098511 104.9299750  66.6399341  72.9469690 101.3017398  67.2409332
  72.9331259 100.4058491  66.9041630  73.6642118 101.3088062  67.8747618
  74.7995821 101.7354738  69.2862459  74.5413599 102.6571809  69.2846790
  74.2680861 101.3385173  69.9762923  65.5618969 106.8520195  70.1316103
  65.0172437 107.6280003  70.2636378  66.4398319 107.1990999  69.9735225
  72.3506586 100.1831778  62.5096902  72.4722497  99.2548425  62.7087789
  72.0608628 100.1970464  61.5975217  75.2197776  97.8686689  65.6463622
  75.2419473  97.9326022  64.6915601  75.6365835  97.0291197  65.8404128
  66.3484991 105.9790091  73.0246260  65.6066727 106.1272726  73.6110891
  66.0277735 106.2398356  72.1613010  66.7941605 113.8655520  65.0556655
  67.6199625 113.5659291  64.6755298  66.4435657 113.0963142  65.5046443
  71.7623138 113.2181988  67.1254328  71.1403147 112.5552693  66.8256556
  72.4328005 113.2443120  66.4427976  64.9950210 111.7841846  66.0145588
  64.1582118 111.3564020  65.8329590  64.9673855 111.9774289  66.9516380
  71.8347666 101.6963776  76.7186834  71.8835821 102.5725899  76.3364604
  72.3770180 101.1541169  76.1458478  71.3236645 111.7685911  60.6012789
  71.4724765 112.4521375  59.9479462  72.1303088 111.7491001  61.1162245
  79.7304149 105.0728293  74.6280007  80.6314011 104.9334758  74.3364005
  79.8052123 105.2382748  75.5678184  74.0646954 102.4495148  73.4733193
  73.1950263 102.7428714  73.2015782  74.3006434 103.0335593  74.1940457
  82.1905771 106.6326922  72.0242780  82.6659893 106.8254568  71.2161631
  81.2671337 106.6886107  71.7786163  69.0789278 107.7951089  61.6073858
  68.8335320 106.8913419  61.8054068  69.2485192 107.7968239  60.6653336
  76.7685988  98.6674765  70.9898613  77.2867932  99.4035792  70.6645102
  76.4141121  98.9738758  71.8245373  68.3484925 103.5279446  59.1060019
  67.6554170 103.6023801  58.4500055  68.1036677 102.7639790  59.6281536
  77.0198582  95.0875048  66.5099510  77.3000336  94.4198237  67.1359937
  77.8049189  95.2804143  65.9974174  80.8907440 103.5092682  70.2571085
  81.8424863 103.6090779  70.2783309  80.7210891 102.7170950  70.7669170
  78.9121820 100.5948265  70.4430486  78.3171752 100.8753278  69.7476975
  78.6271516 101.0842166  71.2147227  75.2078849 105.5994854  55.4140589
  76.1537954 105.4701062  55.4829007  74.8293094 104.8609516  55.8910017
  83.5190007 103.5209845  69.4171668  83.0029055 102.7368301  69.2301597
  84.4029955 103.1928561  69.5818187  81.1800734  97.2650860  65.3767481
  80.9825555  96.9565949  66.2610813  81.7900439  97.9912499  65.5065411
  73.3921766 103.5244831  55.3495474  72.4853222 103.2277943  55.4258188
  73.6697747 103.2274649  54.4829760  64.3099707 104.8451194  65.7994520
  63.9902491 103.9916502  65.5068894  63.7633135 105.0599772  66.5552488
  68.0879614 107.5613635  69.5164027  68.3065624 108.4930743  69.5352061
  68.5005388 107.2021609  70.3018831  75.0083832  98.0681720  61.5039715
  74.1984560  97.7228805  61.8794961  75.6968249  97.7589264  62.0927327
  76.9374380  97.1459767  63.1264012  77.4905419  97.5655221  63.7854035
  77.1744466  96.2195515  63.1686968  72.9607479 103.1346841  78.9066776
  72.8604206 104.0841198  78.8378867  72.7429021 102.8065080  78.0342846
  72.1620551 100.3831766  55.4907453  73.0239715 100.7086664  55.7503271
  72.3470895  99.5963262  54.9780519  64.1787967 108.4654106  67.7687642
  63.4851438 108.0508058  67.2557596  64.9260958 108.5074642  67.1721061
  80.3153187  99.2560292  62.6342676  79.7351856  99.9145096  62.2520729
  80.0489120  98.4337637  62.2230094  78.7656754  98.6565350  64.8363997
  79.2656532  98.7681885  64.0278315  79.4092362  98.3526403  65.4764805
  72.8238749 106.5643980  77.7231838  72.3405831 107.3644340  77.9295727
  72.9099688 106.5751925  76.7699282  66.0924709 108.3972359  65.6453657
  66.0695397 108.4960047  64.6935540  66.4025346 109.2437510  65.9670823
  68.7512087 110.4548514  69.7600271  69.7055340 110.4232457  69.6930203
  68.5524610 109.9939138  70.5750497  69.3411469 109.0249630  72.3271069
  70.1604358 109.5193709  72.3505906  69.6148277 108.1081599  72.2988637
  79.0978065 101.4160383  61.6899025  78.2103920 101.7010033  61.4719219
  79.5132054 101.2554146  60.8426301  82.4492601 101.4406904  65.4053364
  83.2252991 101.9303356  65.6777981  81.7240736 101.8664958  65.8625233
  84.8865160 102.1534523  66.4627304  85.4809651 101.9130259  65.7520613
  84.9591744 101.4341654  67.0900841  79.0719089 106.9314919  61.9049315
  79.0154290 107.3883470  61.0656947  79.6247431 106.1705603  61.7272157
  82.8823895 102.7204651  62.7299434  82.6260829 102.3201286  63.5607642
  82.2576763 103.4348444  62.6049573  79.8053868 108.1219700  59.2001844
  79.7502672 107.9563971  58.2590288  79.1799924 108.8295733  59.3564034
  64.5946383 103.3587764  73.0263266  65.2405247 102.8486718  73.5150491
  64.3863534 104.0956446  73.6006691  73.1149994  97.6227809  58.7787162
  73.1028664  98.5669649  58.9355433  74.0073416  97.4397954  58.4846623
  76.9302113  94.2170586  63.0333099  76.1634509  93.6629072  63.1789781
  77.3412818  94.2892454  63.8947251  68.9343874 100.5055381  77.1238280
  69.7975336 100.1492186  77.3341605  68.3609285 100.1669276  77.8113685
  23.7429726   7.1667854  54.6545988  24.3808135   7.0474602  53.9509328
  23.6250568   8.1148698  54.7133940  20.5519432   7.1195282  54.5907513
  20.2137943   7.0036347  53.7028048  21.4209200   6.7186447  54.5708519
  16.4106247   8.9730759  50.5804404  15.8471113   8.8820696  49.8120691
  16.2958643   8.1530663  51.0606896  21.0339215   8.2730134  60.5493718
  21.0227856   7.8782932  59.6774222  21.1959854   7.5396207  61.1427490
  13.9570679  10.4681950  53.4188624  14.7491971  10.1272775  53.0034923
  14.1967330  10.5776925  54.3390777  21.9905806  12.6401726  45.8918869
  21.3393786  13.2255807  45.5052882  22.7850169  13.1707921  45.9513906
  15.9161433   9.7290864  46.2906003  16.6892309   9.1819851  46.1518879
  16.2686832  10.5935113  46.5020464  17.7546476  11.0567246  59.4972902
  17.4636342  11.9612877  59.3819568  18.3903460  11.0983774  60.2116972
  18.6802683   8.4344094  56.0874262  19.2766255   8.2100117  55.3731225
  18.7377654   7.6928840  56.6899710  18.2527711   5.8883530  43.9224453
  18.5053232   5.3665051  43.1607916  17.3152270   5.7249675  44.0251136
  23.2970994   4.8919308  51.7299196  24.0834083   4.4738731  51.3789613
  23.5609698   5.7965400  51.8980844  23.4681071  10.3292158  46.4287853
  22.8326904  10.4026785  47.1408757  23.1378478  10.9185757  45.7506932
  28.6979421   4.8294541  52.6332175  29.4304593   4.2593758  52.8670004
  27.9418777   4.4416142  53.0738680  17.9724000   7.7911636  46.1248828
  17.8560258   7.1156539  46.7929912  18.0826260   7.3044010  45.3080981
  20.3155541   7.2521783  49.8295517  19.9513748   6.7252404  50.5408438
  21.1722657   6.8620252  49.6562002  26.2204841  -1.4583885  57.0926783
  25.8888166  -0.5888474  56.8687998  25.6250455  -1.7747601  57.7720814
  19.9561028   2.2811683  44.8256865  20.1235430   3.1491919  45.1927337
  19.7658197   2.4438964  43.9018155  22.7136361  10.7428661  56.4922696
  22.4137084  11.6453700  56.3838503  22.3687421  10.4760845  57.3443849
  16.1648842   7.1942458  52.5259400  15.2399339   7.0618672  52.7337092
  16.4133256   7.9736678  53.0229343  26.1133505   3.2611202  54.1720133
  25.2050382   3.1926610  53.8778894  26.0621101   3.7383147  55.0001959
  19.9350249   4.7369340  45.8103532  19.8149874   5.1826391  46.6489013
  19.2402837   5.0854658  45.2517070  13.5257654   6.8375732  53.3603189
  13.6550035   7.0910211  54.2742601  12.8455105   7.4303440  53.0407844
  17.6957141  17.5072982  49.4593664  17.6181171  18.4580807  49.5382144
  17.0918784  17.1618854  50.1168590  20.1874371   4.6800847  62.1155030
  19.4107705   5.2394767  62.1057895  20.8264934   5.1657630  62.6369901
  27.9795151   1.4627640  55.9498007  27.3369531   1.7560173  55.3037802
  27.4750080   1.3480560  56.7551204  25.6335315   5.2090813  46.6383866
  26.5453171   5.4418200  46.4631564  25.1244962   5.7927857  46.0758945
  18.4420743   7.4886301  61.6772997  19.1835427   8.0271345  61.4007821
  17.7357728   8.1152589  61.8344549  23.9176083   9.6315441  60.2745159
  24.3259439   9.1897852  59.5299791  23.1953344   9.0568069  60.5279352
  20.2707153   4.5688048  57.6478716  21.1168348   4.9927461  57.7913365
  20.2105790   3.9121672  58.3417279  24.2404897  10.1916632  54.0297448
  23.6113760  10.3562346  53.3273516  23.8530559  10.6058241  54.8008412
  28.1194129  11.1271069  51.3841812  27.4345167  11.5069971  50.8338845
  28.2037978  11.7366396  52.1173759  23.4206598   2.2292416  59.3059890
  23.1767530   2.9834477  58.7694165  23.6966528   2.6077764  60.1407137
  25.3745061   8.7731029  57.9837155  25.5861956   9.4162788  57.3071536
  25.3274809   7.9393345  57.5159085  22.9771290   1.3848849  54.8873727
  22.1155769   1.6830103  55.1790465  23.0033724   1.6019248  53.9554760
  19.7932859   9.9291040  51.2947533  20.2571205  10.2078743  50.5052155
  19.5289657   9.0274484  51.1120624  16.6856940   9.4762521  54.2327296
  17.2558297   9.9049790  53.5944781  17.2765052   9.1945106  54.9311482
  18.7301745   6.0514192  48.1037098  19.4325788   6.5035236  48.5711024
  18.3982374   5.4098011  48.7316991  17.1782107   4.6425949  62.4788307
  16.5480767   5.3242230  62.7123704  17.0718195   4.5309030  61.5341446
  26.4890889  11.6502984  56.1559512  27.3108332  11.2483171  55.8742194
  26.4853291  11.5471218  57.1075628  20.2547492  11.1987027  58.3120223
  20.3191925  11.6607434  59.1478395  19.5458416  10.5684392  58.4402533
  34.5796882   7.9941732  52.5044484  33.8260590   7.4249130  52.3488488
  34.7144423   7.9604397  53.4515119  19.9695510  12.8655135  48.1799203
  19.8341185  13.7106670  48.6084051  20.5105322  13.0674412  47.4165137
  13.4224907  10.3830573  48.7527128  13.9349428  11.1773823  48.9032693
  14.0747620   9.6856863  48.6860730  15.2319792  13.4996329  50.8349882
  15.4086420  14.4214294  50.6470865  16.0276625  13.1854748  51.2644261
  21.5963986  13.4878701  62.3099545  21.1527840  12.7015080  61.9920450
  22.2581200  13.6757852  61.6443436  16.3551107  15.0174503  56.8360224
  16.9058532  14.8891566  56.0637218  15.5162583  15.3169392  56.4855117
  23.6945224  13.7681501  60.3380947  23.6763700  14.5890382  59.8461216
  24.6165144  13.6435576  60.5631088  20.1518278  11.2825631  61.1804455
  20.6846615  10.5213919  60.9503763  19.6232359  10.9899282  61.9228609
  23.2838256   6.3794308  45.2170532  22.7684879   7.1498912  45.4558919
  23.0115564   5.7059444  45.8403593  28.2572530   9.1326662  47.1523705
  27.4801973   8.7937822  46.7078867  28.9364011   9.1379286  46.4778670
  23.0724559   4.2521400  47.0430313  22.7674695   4.5667549  47.8940456
  24.0255001   4.3302820  47.0857646  21.5170991  10.4111623  48.6923267
  20.9892353   9.6764383  48.3796504  21.0158494  11.1886299  48.4463235
  26.4963837   8.6060644  53.8090313  25.8387511   9.2959905  53.8970442
  27.3004236   8.9957076  54.1524300  25.3069296   6.9605016  51.8594255
  25.8201178   7.5935008  52.3615965  25.9570520   6.3606212  51.4937615
  19.6623591   8.2291833  41.6958240  18.7550653   7.9981087  41.8949389
  20.1594623   7.4329453  41.8832222  22.5691670  16.9389341  44.6154926
  21.8953369  17.2421037  45.2239884  22.9557492  17.7418421  44.2660383
  21.7850127   4.4354472  54.1052596  20.8672688   4.6569419  53.9474284
  22.2010270   4.5100782  53.2464303  22.5685174   5.8345888  49.2355276
  23.3156993   6.3467285  48.9262398  22.8376764   5.5129940  50.0959669
  20.8411825   8.3304428  46.2182230  19.9323044   8.0463461  46.3154700
  20.8706908   8.7503507  45.3585537  26.0731092  11.9411018  49.9873398
  25.6193419  11.1001928  50.0438588  25.4425059  12.5772416  50.3248178
  25.0164012   2.8703004  51.2174065  24.2786768   2.3580390  51.5484308
  25.2690785   2.4303385  50.4057342  24.5164031  13.7787514  50.9223216
  24.8087006  14.3392572  50.2035581  25.0262652  14.0716075  51.6776375
  19.3896719   5.9433049  52.3192025  19.4445328   4.9906885  52.2434502
  18.5787921   6.0992488  52.8033324  20.5387912   9.8713172  43.5570309
  20.1007342   9.1549031  43.0975946  21.2798353  10.0989287  42.9955400
  17.3289079   4.5610109  50.0782404  16.5156944   4.8604279  50.4847596
  17.8248073   4.1665797  50.7956887  19.4797657  14.5567866  52.0116669
  19.4373835  14.7828712  51.0825201  20.3960355  14.3231240  52.1602470
  22.9263290   5.0251933  58.9097298  23.2812678   5.2523406  59.7691764
  23.5735422   5.3570310  58.2874554  28.6561027   8.1470369  49.6146627
  28.5178926   8.3371965  48.6867816  28.2997246   8.9089752  50.0714678
  28.6830407  10.2146896  54.6257899  29.1166914  10.1222185  55.4740953
  29.3961988  10.1904396  53.9877915  17.5963457  11.4330895  51.8078632
  18.3904056  10.9381215  51.6061207  16.8855150  10.9048758  51.4446337
  22.4158302  13.8148990  56.1590999  22.4695324  14.3839926  56.9268715
  21.5473083  13.9850875  55.7945037  29.5445956  10.2570597  57.1590784
  29.7381846  11.1616407  57.4050059  29.4446575   9.7978016  57.9929369
  24.6061065  10.4077339  62.7331665  24.4546571  10.1787891  61.8161748
  24.5965745  11.3647941  62.7463010  21.3746401   7.9809252  57.7177931
  22.3038461   8.1320412  57.5446899  20.9537432   8.0693273  56.8626578
  20.1734733  12.0059917  55.4876469  20.0345819  11.6378701  56.3602407
  19.3849330  12.5207556  55.3160427  20.7682885  17.1069013  46.8302005
  20.9434641  16.6357056  47.6447628  20.0815673  17.7334779  47.0583266
  21.7239948  11.3841519  52.8765307  21.3889781  11.3442289  53.7722957
  21.2243894  10.7186235  52.4035717  24.6599140   8.7297554  43.1502366
  24.0428311   8.0044382  43.0535419  24.1915629   9.4906914  42.8069441
  18.3266493   6.5029109  57.8901567  19.0366112   5.8622301  57.8488186
  18.2835801   6.7542003  58.8127748  26.3153272  13.4396462  60.8108147
  26.2565818  12.7555682  60.1438730  26.7172790  14.1815452  60.3588773
  15.3343971  20.2558376  53.6041866  15.5740569  20.8876900  54.2820884
  14.4913167  19.9046416  53.8907225  26.3170679  11.4036046  59.0422126
  25.4297458  11.0661968  59.1648525  26.8869230  10.6719077  59.2790892
  19.8471832  16.0637498  56.0083370  19.7742004  16.8692470  56.5202674
  19.4049226  16.2629464  55.1831391  19.6361612  15.3009268  49.5186191
  18.8529134  15.8430948  49.6124416  20.3354357  15.8183248  49.9180432
  22.9458262   1.1103898  52.1620396  23.4426962   0.3573860  51.8421467
  22.1745244   1.1468214  51.5963606  30.7988020   6.8144263  53.8038688
  30.7877896   7.6968979  53.4332621  29.9305399   6.4615814  53.6093225
  22.3070516  15.9624332  58.1641528  23.0198488  16.5971797  58.0917430
  21.8160545  16.0588198  57.3481530  24.0288043   9.8675585  49.7358820
  23.0944322   9.9877047  49.5663524  24.2064711   8.9648052  49.4718830
  27.4160594   5.7092904  50.2708854  27.8821046   6.5420896  50.1969157
  27.8668095   5.2437886  50.9754112  17.3582429  13.7118776  58.9847099
  18.0591889  14.3455259  59.1376493  16.8877544  14.0533507  58.2242738
  25.4836825  12.0536725  47.2695006  25.7596669  11.9393320  48.1788880
  24.6141324  11.6554210  47.2307179  25.1583715   6.2663383  56.8099649
  24.5055166   6.5139291  56.1552102  25.5364095   5.4527521  56.4762127
  22.1190889  16.3023076  50.9127820  22.3013284  15.4844732  51.3755572
  22.9423875  16.5190769  50.4752710  22.4533055  15.2291261  48.1742868
  22.9820821  14.7183716  47.5613030  22.7161274  14.9133792  49.0388401
  21.2071288   7.0083194  63.2965686  20.5311925   6.9077324  63.9668062
  22.0298922   6.8522408  63.7601684  12.9550148  13.2455131  55.9178202
  13.5403584  12.4998819  56.0506106  12.7574986  13.5559087  56.8014866
  15.8088803  16.2806378  50.9340644  15.1399178  16.7652506  50.4504684
  15.6701672  16.5275599  51.8484023  19.9494071  18.3150122  57.5323302
  20.5012379  18.4781743  58.2972388  20.2900265  18.9054559  56.8603327
  24.8004946  13.1411379  63.3871957  25.3444850  13.7541337  62.8926912
  24.2191790  13.6990958  63.9038970  23.0862459  16.2632097  54.5186985
  22.9613598  15.4621837  54.0097930  23.7441550  16.7578291  54.0300955
  25.1497367  14.0641117  56.1466535  24.2027703  13.9446468  56.0744861
  25.4980140  13.1763615  56.2292796  22.1543800  13.8593833  52.3470887
  22.0068763  12.9310541  52.5278457  22.9797294  13.8813924  51.8627962
  25.7577922  14.6822392  53.4335760  26.6824470  14.4765254  53.2960211
  25.5893226  14.4338793  54.3425101  22.1505315   1.7131671  47.3403004
  22.3668929   2.5956309  47.0391832  21.6699382   1.3217885  46.6108646
  16.8904536   4.6717384  53.9173749  16.7449117   4.9857687  54.8098030
  16.4129740   5.2902285  53.3644647  25.5473238  15.2008060  48.7897851
  25.7210116  14.6354482  48.0371704  26.0402130  16.0008955  48.6077341
  31.4012630   7.9644483  50.4088151  31.8443776   7.2151808  50.0107274
  30.5239140   7.9554619  50.0261883  26.5348411  14.5174824  45.8894749
  27.2299315  15.1381517  46.1082064  26.8771561  13.6670175  46.1647127
  28.4339834  11.9674530  47.4182080  28.9591158  12.3061802  46.6931400
  28.3462187  11.0321545  47.2345215  20.0959883  15.8808603  59.5471957
  20.4047009  15.6357750  60.4194656  20.8935365  16.0855242  59.0590827
  20.1180495  18.0346513  51.7777333  19.6785485  17.5422892  52.4710190
  20.8688612  17.4919481  51.5369409  12.5972834  14.2258054  51.7801961
  13.4230854  13.9261826  51.4000605  12.2466886  13.4565676  52.2291750
  17.5654367  13.5784522  53.8499635  16.9434376  12.9155227  53.5501863
  18.2359234  13.6045654  53.1673283  10.7981439  12.1444380  52.7390895
   9.9613347  11.7166555  52.5574896  10.7705084  12.3376824  53.6761686
  28.1233740  12.6007433  62.7233278  27.3329284  12.5831572  62.1837778
  27.8867095  13.1395727  63.4782315  28.2431615   9.4499900  60.0366007
  28.2929620   9.2849907  60.9781529  28.1345538   8.5827159  59.6463887
  17.1267874  12.1288445  47.3258096  17.2755994  12.8123910  46.6724768
  17.9334317  12.1093535  47.8407551  25.5335377   5.4330828  61.3525313
  26.4345240   5.2937292  61.0609311  25.6083352   5.5985282  62.2923491
  19.8678183   2.8097682  60.1978500  18.9981492   3.1031248  59.9261088
  20.1037663   3.3938127  60.9185763  29.7449812  11.8696841  60.2808028
  29.4534620  12.2326822  61.1171489  29.1321943  11.1563849  60.1021360
  30.9445494   9.4349721  52.8010598  31.7792386   9.8739525  52.9648159
  31.0804623   8.9588374  51.9818844  27.9937000   6.9929456  58.7488086
  28.4691122   7.1857102  57.9406938  27.0702566   7.0488642  58.5031470
  14.8820507   8.1553623  48.3319164  14.6366549   7.2515953  48.5299375
  15.0516421   8.1570773  47.3898642  20.6263279  14.6236576  44.7969843
  20.0537246  15.2426763  44.3440315  21.1996073  15.1735937  45.3309765
  26.6938669   3.8695216  56.9816392  27.6456092   3.9693314  57.0028616
  26.5242120   3.0773484  57.4914476  24.7153049   0.9550799  57.1675793
  24.1202981   1.2355812  56.4722281  24.4302745   1.4444700  57.9392534
  23.8460539  14.9073726  45.9278425  24.7791212  14.8419288  46.1311301
  23.7583752  15.7429993  45.4692958  26.4748556  14.2239596  42.8882373
  26.3962187  13.8899460  43.7818131  27.2958223  14.7161364  42.8873845
  29.1726747   7.0901336  56.0958691  29.1403067   6.1517336  56.2818375
  29.7827371   7.1685372  55.3624516  21.0110078   5.9597389  42.1385895
  21.9569183   5.8303597  42.2074314  20.6324323   5.2212050  42.6155324
  29.3221235   3.8812379  56.1416975  28.8060284   3.0970836  55.9546903
  30.2061184   3.5531096  56.3063494  34.9903297   8.1517342  55.2364728
  35.7206685   7.8902631  55.7972432  34.3810242   7.4146064  55.2766796
  33.0718594   6.2925205  55.8339179  32.3451757   6.1581170  55.2255671
  32.6565881   6.6002034  56.6395897  20.8948770  10.0115135  63.5986552
  21.8151780  10.1893734  63.7926599  20.8598353   9.0671180  63.4466252
  19.1952995   3.8847365  42.0740781  18.2884450   3.5880478  42.1503494
  19.4728976   3.5877183  41.2075067  13.8910843   7.9216169  56.2409334
  14.1096853   8.8533277  56.2597367  14.3036617   7.5624144  57.0264137
  18.7638708   3.4949375  65.6312083  18.6635435   4.4443732  65.5624174
  18.5460250   3.1667614  64.7588153  26.1184416  -0.3837173  49.3587983
  25.5383085   0.2747631  48.9766035  25.8520349  -1.2059829  48.9475400
  24.5687982  -0.9832116  51.5609303  25.0687761  -0.8715581  50.7523622
  25.2123590  -1.2871063  52.2010112  18.6269978   6.9246514  64.4477144
  18.1437060   7.7246874  64.6541033  18.7130917   6.9354459  63.4944588
  11.8955938   8.7574894  52.3698964  11.8726626   8.8562581  51.4180847
  12.2056574   9.6040044  52.6916130  14.5543316  10.8151049  56.4845578
  15.5086569  10.7834991  56.4175510  14.3555839  10.3541672  57.2995804
  15.1442698   9.3852165  59.0516376  15.9635587   9.8796243  59.0751213
  15.4179506   8.4684133  59.0233943  24.9009294   1.7762917  48.4144331
  24.0135149   2.0612568  48.1964526  25.3163283   1.6156680  47.5671608
  28.2523830   1.8009438  52.1298670  29.0284220   2.2905890  52.4023287
  27.5271964   2.2267492  52.5870540  30.6896389   2.5137057  53.1872611
  31.2840880   2.2732793  52.4765919  30.7622973   1.7944188  53.8146147
  12.9093545  16.3570668  53.5015776  12.7748012  15.5971069  52.9353774
  12.4925607  17.0811568  53.0344565  24.0452508  11.5407592  42.5092351
  24.7488358  11.7457594  43.1250007  23.3215156  12.1084354  42.7741435
  24.8750318   7.2917453  48.6294621  24.8185519   7.7486004  47.7902254
  25.4278660   6.5308137  48.4517464  28.6855124   3.0807185  49.4544741
  28.4292058   2.6803820  50.2852949  28.0607992   3.7950979  49.3294880
  32.9967462   5.8203258  51.9616032  32.4367020   5.8896447  52.7347594
  32.3910965   5.6444243  51.2415528  16.0662670  17.2539985  53.7134219
  15.9495055  18.1985418  53.6112909  15.2455117  16.9513547  54.1020018
  25.9539205  11.9790121  44.5590811  26.7884809  11.5471319  44.3768286
  25.7923548  11.8072135  45.4867706  25.6085097   8.4822234  45.9247151
  25.5533901   8.3166506  44.9835595  24.9831152   9.1898267  46.0809340
  22.9231004  10.7871146  65.2500713  23.7922164  10.9611798  64.8887348
  22.4437756  11.6065563  65.1276443  17.0917185  17.9068247  56.9290147
  17.9944431  17.9391857  57.2456642  16.8654555  16.9768698  56.9436483
  18.8470787  16.6599234  53.5900226  17.8966418  16.6601095  53.4764598
  19.1503273  15.9131968  53.0736260  34.5823480  22.4959772  54.6545988
  35.2201890  22.3766519  53.9509328  34.4644323  23.4440616  54.7133940
  31.3913186  22.4487200  54.5907513  31.0531698  22.3328265  53.7028048
  32.2602954  22.0478365  54.5708519  27.2500002  24.3022676  50.5804404
  26.6864867  24.2112613  49.8120691  27.1352397  23.4822581  51.0606896
  31.8732969  23.6022052  60.5493718  31.8621610  23.2074850  59.6774222
  32.0353609  22.8688124  61.1427490  24.7964434  25.7973868  53.4188624
  25.5885726  25.4564693  53.0034923  25.0361084  25.9068843  54.3390777
  32.8299561  27.9693644  45.8918869  32.1787540  28.5547725  45.5052882
  33.6243924  28.4999839  45.9513906  26.7555188  25.0582781  46.2906003
  27.5286064  24.5111768  46.1518879  27.1080587  25.9227031  46.5020464
  28.5940230  26.3859164  59.4972902  28.3030096  27.2904794  59.3819568
  29.2297215  26.4275691  60.2116972  29.5196437  23.7636012  56.0874262
  30.1160010  23.5392035  55.3731225  29.5771409  23.0220758  56.6899710
  29.0921466  21.2175447  43.9224453  29.3446986  20.6956969  43.1607916
  28.1546025  21.0541593  44.0251136  34.1364748  20.2211226  51.7299196
  34.9227838  19.8030649  51.3789613  34.4003453  21.1257318  51.8980844
  34.3074826  25.6584076  46.4287853  33.6720659  25.7318703  47.1408757
  33.9772232  26.2477675  45.7506932  39.5373176  20.1586459  52.6332175
  40.2698348  19.5885676  52.8670004  38.7812531  19.7708059  53.0738680
  28.8117754  23.1203553  46.1248828  28.6954013  22.4448457  46.7929912
  28.9220014  22.6335927  45.3080981  31.1549295  22.5813700  49.8295517
  30.7907503  22.0544321  50.5408438  32.0116411  22.1912170  49.6562002
  37.0598596  13.8708033  57.0926783  36.7281921  14.7403444  56.8687998
  36.4644209  13.5544317  57.7720814  30.7954782  17.6103600  44.8256865
  30.9629185  18.4783837  45.1927337  30.6051951  17.7730882  43.9018155
  33.5530116  26.0720579  56.4922696  33.2530839  26.9745618  56.3838503
  33.2081175  25.8052762  57.3443849  27.0042597  22.5234376  52.5259400
  26.0793093  22.3910590  52.7337092  27.2527010  23.3028595  53.0229343
  36.9527259  18.5903119  54.1720133  36.0444137  18.5218528  53.8778894
  36.9014855  19.0675064  55.0001959  30.7744003  20.0661258  45.8103532
  30.6543628  20.5118308  46.6489013  30.0796592  20.4146575  45.2517070
  24.3651408  22.1667649  53.3603189  24.4943789  22.4202128  54.2742601
  23.6848859  22.7595357  53.0407844  28.5350895  32.8364899  49.4593664
  28.4574925  33.7872725  49.5382144  27.9312539  32.4910772  50.1168590
  31.0268125  20.0092765  62.1155030  30.2501459  20.5686685  62.1057895
  31.6658688  20.4949548  62.6369901  38.8188906  16.7919558  55.9498007
  38.1763286  17.0852091  55.3037802  38.3143834  16.6772478  56.7551204
  36.4729069  20.5382731  46.6383866  37.3846925  20.7710118  46.4631564
  35.9638716  21.1219775  46.0758945  29.2814497  22.8178218  61.6772997
  30.0229182  23.3563262  61.4007821  28.5751483  23.4444507  61.8344549
  34.7569837  24.9607359  60.2745159  35.1653193  24.5189769  59.5299791
  34.0347099  24.3859986  60.5279352  31.1100907  19.8979965  57.6478716
  31.9562102  20.3219379  57.7913365  31.0499545  19.2413590  58.3417279
  35.0798652  25.5208549  54.0297448  34.4507514  25.6854263  53.3273516
  34.6924314  25.9350159  54.8008412  38.9587884  26.4562987  51.3841812
  38.2738922  26.8361889  50.8338845  39.0431733  27.0658314  52.1173759
  34.2600352  17.5584334  59.3059890  34.0161284  18.3126394  58.7694165
  34.5360283  17.9369681  60.1407137  36.2138815  24.1022946  57.9837155
  36.4255710  24.7454706  57.3071536  36.1668563  23.2685263  57.5159085
  33.8165044  16.7140767  54.8873727  32.9549523  17.0122020  55.1790465
  33.8427479  16.9311166  53.9554760  30.6326614  25.2582957  51.2947533
  31.0964959  25.5370660  50.5052155  30.3683412  24.3566402  51.1120624
  27.5250695  24.8054439  54.2327296  28.0952052  25.2341707  53.5944781
  28.1158806  24.5237024  54.9311482  29.5695500  21.3806110  48.1037098
  30.2719543  21.8327153  48.5711024  29.2376128  20.7389929  48.7316991
  28.0175861  19.9717866  62.4788307  27.3874522  20.6534147  62.7123704
  27.9111949  19.8600948  61.5341446  23.3120834  19.6389662  53.4054232
  22.5219888  19.8947191  52.9294342  23.8032081  20.4538000  53.5106272
  37.3284643  26.9794902  56.1559512  38.1502087  26.5775089  55.8742194
  37.3247046  26.8763136  57.1075628  25.2635579  20.0034242  50.3637708
  24.4666742  20.1152936  50.8821204  25.0361171  20.3420894  49.4978599
  31.0941247  26.5278945  58.3120223  31.1585679  26.9899352  59.1478395
  30.3852170  25.8976310  58.4402533  21.5958537  19.8920153  55.8369222
  21.8466575  20.7767163  56.1026798  22.1318085  19.7124754  55.0644314
  45.4190636  23.3233650  52.5044484  44.6654345  22.7541048  52.3488488
  45.5538177  23.2896315  53.4515119  30.8089264  28.1947052  48.1799203
  30.6734939  29.0398588  48.6084051  31.3499077  28.3966330  47.4165137
  27.2956604  14.2738632  64.8413558  26.9023549  13.7204831  65.5161203
  28.1122744  14.5849211  65.2320076  24.2618662  25.7122490  48.7527128
  24.7743182  26.5065741  48.9032693  24.9141374  25.0148781  48.6860730
  26.0713546  28.8288247  50.8349882  26.2480175  29.7506211  50.6470865
  26.8670380  28.5146666  51.2644261  30.2124565  15.6896511  62.4333815
  30.9534278  16.2903664  62.3538278  30.4442488  14.9474149  61.8751858
  25.3565903  20.8752879  60.7112045  25.2419418  19.9738136  61.0119144
  24.5010421  21.1216575  60.3596861  32.4357741  28.8170619  62.3099545
  31.9921595  28.0306997  61.9920450  33.0974954  29.0049769  61.6443436
  27.1944862  30.3466420  56.8360224  27.7452287  30.2183484  56.0637218
  26.3556338  30.6461310  56.4855117  34.5338979  29.0973419  60.3380947
  34.5157454  29.9182300  59.8461216  35.4558899  28.9727494  60.5631088
  30.9912033  26.6117548  61.1804455  31.5240370  25.8505837  60.9503763
  30.4626114  26.3191200  61.9228609  34.1581728  11.7177614  56.7098097
  33.8145997  12.6079256  56.6337207  34.5260690  11.5279272  55.8467682
  22.2267578  24.0411145  49.5286699  23.0642800  24.4508153  49.3120407
  22.4045846  23.1010587  49.4986893  34.1232011  21.7086225  45.2170532
  33.6078634  22.4790830  45.4558919  33.8509319  21.0351362  45.8403593
  31.7079122  16.5535926  50.2755770  30.8520718  16.1642777  50.0961409
  32.1206073  16.6327887  49.4155556  33.2378268  14.0882269  54.6747330
  32.7343064  14.0512405  53.8615135  33.5308875  14.9975012  54.7343987
  29.4821154  14.1720999  53.6813512  30.3474151  13.9763808  53.3219401
  29.5498663  13.9431351  54.6082868  39.0966285  24.4618580  47.1523705
  38.3195727  24.1229740  46.7078867  39.7757766  24.4671203  46.4778670
  33.9118314  19.5813317  47.0430313  33.6068449  19.8959467  47.8940456
  34.8648756  19.6594737  47.0857646  32.3564746  25.7403541  48.6923267
  31.8286107  25.0056300  48.3796504  31.8552248  26.5178217  48.4463235
  37.3357592  23.9352561  53.8090313  36.6781266  24.6251823  53.8970442
  38.1397991  24.3248993  54.1524300  27.0883473  16.4023207  51.0529879
  27.6627225  16.1798389  50.3203071  27.6754456  16.4711902  51.8058480
  36.1463050  22.2896934  51.8594255  36.6594932  22.9226926  52.3615965
  36.7964274  21.6898129  51.4937615  27.4153060  18.4327668  45.0725764
  26.5790373  18.7702355  45.3935039  27.2757830  18.2976648  44.1352901
  29.3906141  13.2764456  49.7804948  28.7370553  12.9613473  49.1561563
  29.3486615  12.6540196  50.5064771  30.5017346  23.5583751  41.6958240
  29.5944407  23.3273005  41.8949389  30.9988378  22.7621370  41.8832222
  33.4085425  32.2681258  44.6154926  32.7347123  32.5712955  45.2239884
  33.7951247  33.0710339  44.2660383  32.6243881  19.7646390  54.1052596
  31.7066443  19.9861337  53.9474284  33.0404025  19.8392700  53.2464303
  33.4078929  21.1637805  49.2355276  34.1550748  21.6759202  48.9262398
  33.6770519  20.8421858  50.0959669  31.6805579  23.6596346  46.2182230
  30.7716798  23.3755379  46.3154700  31.7100663  24.0795424  45.3585537
  36.9124847  27.2702935  49.9873398  36.4587174  26.4293845  50.0438588
  36.2818813  27.9064334  50.3248178  35.8557766  18.1994921  51.2174065
  35.1180523  17.6872308  51.5484308  36.1084540  17.7595303  50.4057342
  35.3557786  29.1079432  50.9223216  35.6480760  29.6684489  50.2035581
  35.8656406  29.4007993  51.6776375  35.9569393  10.9771173  51.8115834
  36.2628270  10.1168537  51.5241749  36.6821998  11.5688794  51.6114828
  22.2493750  21.3801860  50.1997432  22.0518149  20.7871221  49.4748499
  21.6940414  21.0754070  50.9173371  30.2290473  21.2724967  52.3192025
  30.2839083  20.3198803  52.2434502  29.4181675  21.4284406  52.8033324
  31.3781667  25.2005090  43.5570309  30.9401097  24.4840949  43.0975946
  32.1192108  25.4281204  42.9955400  28.1682833  19.8902026  50.0782404
  27.3550699  20.1896197  50.4847596  28.6641827  19.4957715  50.7956887
  30.3191411  29.8859783  52.0116669  30.2767590  30.1120630  51.0825201
  31.2354110  29.6523158  52.1602470  33.7657045  20.3543851  58.9097298
  34.1206433  20.5815324  59.7691764  34.4129176  20.6862228  58.2874554
  39.4954782  23.4762287  49.6146627  39.3572680  23.6663883  48.6867816
  39.1391001  24.2381669  50.0714678  27.6596908  17.4620382  55.6943639
  28.2996287  17.3209141  54.9966603  26.8274438  17.1754895  55.3182241
  39.5224161  25.5438814  54.6257899  39.9560668  25.4514103  55.4740953
  40.2355742  25.5196314  53.9877915  28.4357212  26.7622812  51.8078632
  29.2297810  26.2673132  51.6061207  27.7248904  26.2340675  51.4446337
  33.2552056  29.1440908  56.1590999  33.3089079  29.7131844  56.9268715
  32.3866838  29.3142793  55.7945037  24.7439975  20.9065894  47.8838384
  23.8137563  20.8450349  48.1008347  24.8397447  20.3841847  47.0875026
  24.6625524  17.4320707  50.4716626  24.9232342  18.3466040  50.3625787
  25.4842697  16.9645149  50.6213239  26.1350450  18.8458464  57.6415451
  26.8073503  18.6375826  56.9928100  25.3080236  18.6480550  57.2020683
  40.3839711  25.5862514  57.1590784  40.5775601  26.4908325  57.4050059
  40.2840329  25.1269933  57.9929369  32.0376022  15.4720405  59.6581112
  31.3903937  16.1710355  59.5645588  32.8077037  15.9056549  60.0257360
  35.4454820  25.7369257  62.7331665  35.2940326  25.5079809  61.8161748
  35.4359499  26.6939858  62.7463010  32.2140156  23.3101170  57.7177931
  33.1432216  23.4612329  57.5446899  31.7931186  23.3985191  56.8626578
  31.0128488  27.3351834  55.4876469  30.8739573  26.9670619  56.3602407
  30.2243084  27.8499474  55.3160427  31.6076640  32.4360931  46.8302005
  31.7828395  31.9648974  47.6447628  30.9209428  33.0626697  47.0583266
  32.5633703  26.7133437  52.8765307  32.2283536  26.6734207  53.7722957
  32.0637649  26.0478153  52.4035717  26.5377947  22.1201067  58.4017888
  26.3997745  21.3881306  59.0029427  27.4482870  22.0309967  58.1202076
  35.4992895  24.0589471  43.1502366  34.8822065  23.3336299  43.0535419
  35.0309383  24.8198832  42.8069441  29.1660248  21.8321026  57.8901567
  29.8759866  21.1914218  57.8488186  29.1229556  22.0833921  58.8127748
  37.1547026  28.7688380  60.8108147  37.0959572  28.0847600  60.1438730
  37.5566545  29.5107370  60.3588773  27.8789182  18.8186244  59.7097207
  27.3426539  18.3676983  60.3618803  27.2905890  18.9532153  58.9667671
  26.1737725  35.5850293  53.6041866  26.4134323  36.2168818  54.2820884
  25.3306922  35.2338333  53.8907225  27.2891440  18.2774896  42.2723671
  26.4120907  18.1563696  41.9085917  27.7649194  17.4860974  42.0202559
  37.1564434  26.7327964  59.0422126  36.2691212  26.3953885  59.1648525
  37.7262985  26.0010995  59.2790892  18.8093581  23.0652055  52.3665178
  19.4964620  22.7513785  51.7786193  18.6541709  23.9693420  52.0932429
  23.6128303  17.9542252  56.7950201  23.5286491  17.3467921  56.0600611
  22.7911009  18.4451270  56.7959698  30.6865587  31.3929416  56.0083370
  30.6135758  32.1984387  56.5202674  30.2442980  31.5921382  55.1831391
  30.4755367  30.6301186  49.5186191  29.6922888  31.1722866  49.6124416
  31.1748112  31.1475166  49.9180432  33.7852017  16.4395815  52.1620396
  34.2820716  15.6865778  51.8421467  33.0138998  16.4760132  51.5963606
  41.6381774  22.1436181  53.8038688  41.6271650  23.0260896  53.4332621
  40.7699153  21.7907732  53.6093225  33.1464270  31.2916250  58.1641528
  33.8592243  31.9263715  58.0917430  32.6554299  31.3880116  57.3481530
  34.8681797  25.1967503  49.7358820  33.9338076  25.3168965  49.5663524
  35.0458466  24.2939969  49.4718830  30.3686985  18.5813198  51.8892081
  29.9984773  18.0284239  52.5772987  30.8646078  17.9771332  51.3367081
  38.2554349  21.0384822  50.2708854  38.7214801  21.8712813  50.1969157
  38.7061849  20.5729803  50.9754112  28.1976184  29.0410693  58.9847099
  28.8985643  29.6747176  59.1376493  27.7271299  29.3825425  58.2242738
  36.3230580  27.3828643  47.2695006  36.5990424  27.2685238  48.1788880
  35.4535079  26.9846128  47.2307179  36.2271011  13.4065409  54.3099755
  35.3134091  13.6369636  54.4781962  36.6564113  13.4903853  55.1613788
  35.9977470  21.5955301  56.8099649  35.3448920  21.8431208  56.1552102
  36.3757850  20.7819439  56.4762127  32.9584644  31.6314994  50.9127820
  33.1407038  30.8136650  51.3755572  33.7817630  31.8482686  50.4752710
  33.2926809  30.5583179  48.1742868  33.8214576  30.0475634  47.5613030
  33.5555029  30.2425709  49.0388401  32.0465043  22.3375112  63.2965686
  31.3705680  22.2369241  63.9668062  32.8692677  22.1814326  63.7601684
  23.7943902  28.5747048  55.9178202  24.3797339  27.8290736  56.0506106
  23.5968740  28.8851005  56.8014866  26.6482557  31.6098296  50.9340644
  25.9792932  32.0944423  50.4504684  26.5095427  31.8567516  51.8484023
  18.3861557  21.1452649  54.6382645  18.4245656  20.6116239  55.4319763
  17.8801850  20.6187854  54.0193622  30.7887826  33.6442039  57.5323302
  31.3406134  33.8073661  58.2972388  31.1294019  34.2346477  56.8603327
  25.7652319  15.9917189  58.1345187  25.8293646  16.8532020  57.7222585
  25.7019439  15.3791191  57.4017546  25.2404592  18.0640322  61.7818221
  25.8676630  17.6817399  62.3955746  24.3832510  17.8454524  62.1473914
  35.6398700  28.4703297  63.3871957  36.1838604  29.0833255  62.8926912
  35.0585545  29.0282875  63.9038970  22.0170134  19.8716751  47.7136576
  22.3123575  18.9627429  47.6603630  21.1158170  19.8504490  47.3917579
  33.9256213  31.5924015  54.5186985  33.8007353  30.7913755  54.0097930
  34.5835304  32.0870208  54.0300955  25.5464381  17.9472747  53.6964125
  24.8250967  18.5608715  53.5571598  26.3357637  18.4830512  53.6180771
  35.9891121  29.3933035  56.1466535  35.0421457  29.2738386  56.0744861
  36.3373895  28.5055533  56.2292796  28.3490695  15.2827174  59.9704777
  28.8725097  15.5289470  60.7331086  28.1303028  16.1147209  59.5507914
  23.7457976  17.5530848  47.8375901  23.4170682  16.6728227  47.6551007
  24.0997347  17.4978517  48.7252291  32.9937555  29.1885751  52.3470887
  32.8462517  28.2602459  52.5278457  33.8191048  29.2105842  51.8627962
  26.8599799  17.8403818  48.2051379  27.1995872  18.3689739  47.4829987
  27.3071920  18.1784224  48.9809946  36.5971677  30.0114310  53.4335760
  37.5218224  29.8057171  53.2960211  36.4286980  29.7630711  54.3425101
  29.5543240  16.2240869  57.6554447  29.2140060  15.4248682  58.0575127
  28.8482246  16.5242580  57.0831280  30.2059712  13.3090181  56.1081770
  31.0285781  12.8350660  55.9860660  30.4497775  14.0880665  56.6080456
  28.8467946  16.3378440  46.4044672  29.5676309  16.7159693  45.9008389
  28.2233250  17.0567317  46.5079650  32.9899069  17.0423589  47.3403004
  33.2062683  17.9248227  47.0391832  32.5093136  16.6509802  46.6108646
  27.7298290  20.0009302  53.9173749  27.5842871  20.3149605  54.8098030
  27.2523494  20.6194202  53.3644647  29.5894673  16.9911850  53.9654638
  29.5756242  16.0952943  53.6286936  30.3067101  16.9982514  54.5992924
  31.4420804  17.4249190  56.0107766  31.1838582  18.3466261  56.0092096
  30.9105844  17.0279625  56.7008230  36.3866993  30.5299977  48.7897851
  36.5603870  29.9646400  48.0371704  36.8795884  31.3300872  48.6077341
  22.2043953  22.5414646  56.8561410  21.6597421  23.3174454  56.9881684
  23.0823302  22.8885451  56.6980531  28.9931569  15.8726230  49.2342208
  29.1147480  14.9442876  49.4333096  28.7033612  15.8864916  48.3220524
  31.8622760  13.5581141  52.3708928  31.8844456  13.6220474  51.4160908
  32.2790819  12.7185649  52.5649434  42.2406384  23.2936400  50.4088151
  42.6837530  22.5443725  50.0107274  41.3632894  23.2846537  50.0261883
  37.3742165  29.8466742  45.8894749  38.0693070  30.4673434  46.1082064
  37.7165315  28.9962093  46.1647127  22.9909974  21.6684543  59.7491567
  22.2491711  21.8167178  60.3356197  22.6702719  21.9292808  58.8858316
  39.2733588  27.2966447  47.4182080  39.7984913  27.6353720  46.6931400
  39.1855941  26.3613463  47.2345215  30.9353637  31.2100521  59.5471957
  31.2440764  30.9649668  60.4194656  31.7329119  31.4147159  59.0590827
  30.9574249  33.3638431  51.7777333  30.5179239  32.8714809  52.4710190
  31.7082366  32.8211398  51.5369409  23.4366588  29.5549971  51.7801961
  24.2624608  29.2553743  51.4000605  23.0860640  28.7857594  52.2291750
  28.4048121  28.9076440  53.8499635  27.7828131  28.2447145  53.5501863
  29.0752988  28.9337572  53.1673283  21.6375193  27.4736298  52.7390895
  20.8007102  27.0458472  52.5574896  21.6098839  27.6668741  53.6761686
  28.4772649  17.3858228  63.4432141  28.5260804  18.2620350  63.0609911
  29.0195163  16.8435621  62.8703784  38.9627495  27.9299351  62.7233278
  38.1723038  27.9123490  62.1837778  38.7260849  28.4687645  63.4782315
  39.0825370  24.7791817  60.0366007  39.1323374  24.6141825  60.9781529
  38.9739293  23.9119076  59.6463887  27.9661628  27.4580363  47.3258096
  28.1149749  28.1415827  46.6724768  28.7728072  27.4385453  47.8407551
  36.3729132  20.7622745  61.3525313  37.2738995  20.6229210  61.0609311
  36.4477106  20.9277200  62.2923491  30.7071937  18.1389600  60.1978500
  29.8375247  18.4323166  59.9261088  30.9431418  18.7230045  60.9185763
  40.5843566  27.1988759  60.2808028  40.2928375  27.5618739  61.1171489
  39.9715698  26.4855767  60.1021360  41.7839249  24.7641639  52.8010598
  42.6186140  25.2031443  52.9648159  41.9198377  24.2880292  51.9818844
  38.8330755  22.3221373  58.7488086  39.3084876  22.5149020  57.9406938
  37.9096320  22.3780559  58.5031470  25.7214261  23.4845541  48.3319164
  25.4760303  22.5807871  48.5299375  25.8910176  23.4862691  47.3898642
  33.4110971  14.3569217  57.7143920  33.9292915  15.0930244  57.3890409
  33.0566104  14.6633210  58.5490679  24.9909909  19.2173898  45.8305326
  24.2979154  19.2918253  45.1745362  24.7461661  18.4534242  46.3526843
  33.6623565  10.7769500  53.2344817  33.9425319  10.1092689  53.8605243
  34.4474172  10.9698595  52.7219481  31.4657034  29.9528493  44.7969843
  30.8931001  30.5718681  44.3440315  32.0389827  30.5027855  45.3309765
  37.5332424  19.1987134  56.9816392  38.4849847  19.2985231  57.0028616
  37.3635874  18.4065402  57.4914476  35.5546803  16.2842717  57.1675793
  34.9596735  16.5647729  56.4722281  35.2696500  16.7736618  57.9392534
  34.6854294  30.2365644  45.9278425  35.6184967  30.1711205  46.1311301
  34.5977506  31.0721910  45.4692958  37.3142310  29.5531514  42.8882373
  37.2355942  29.2191378  43.7818131  38.1351977  30.0453282  42.8873845
  40.0120501  22.4193253  56.0958691  39.9796822  21.4809254  56.2818375
  40.6221125  22.4977290  55.3624516  31.8503832  21.2889306  42.1385895
  32.7962937  21.1595514  42.2074314  31.4718077  20.5503968  42.6155324
  40.1614990  19.2104297  56.1416975  39.6454039  18.4262753  55.9546903
  41.0454938  18.8823013  56.3063494  37.8225717  12.9545312  52.1012787
  37.6250538  12.6460400  52.9856119  38.4325422  13.6806951  52.2310717
  45.8297051  23.4809260  55.2364728  46.5600440  23.2194548  55.7972432
  45.2203997  22.7437982  55.2766796  43.9112348  21.6217123  55.8339179
  43.1845512  21.4873088  55.2255671  43.4959635  21.9293951  56.6395897
  31.7342525  25.3407052  63.5986552  32.6545534  25.5185651  63.7926599
  31.6992108  24.3963098  63.4466252  30.0346749  19.2139283  42.0740781
  29.1278205  18.9172395  42.1503494  30.3122730  18.9169101  41.2075067
  20.9524690  20.5345646  52.5239827  20.6327474  19.6810954  52.2314201
  20.4058118  20.7494224  53.2797794  24.7304597  23.2508087  56.2409334
  24.9490607  24.1825195  56.2597367  25.1430371  22.8916061  57.0264137
  31.6508815  13.7576172  48.2285022  30.8409543  13.4123257  48.6040268
  32.3393232  13.4483716  48.8172634  33.5799363  12.8354219  49.8509319
  34.1330402  13.2549673  50.5099342  33.8169450  11.9089967  49.8932275
  29.6032463  18.8241293  65.6312083  29.5029190  19.7735650  65.5624174
  29.3854005  18.4959532  64.7588153  28.8045534  16.0726218  42.2152760
  29.6664698  16.3981116  42.4748577  28.9895878  15.2857714  41.7025826
  20.8212950  24.1548557  54.4932949  20.1276421  23.7402510  53.9802903
  21.5685941  24.1969094  53.8966368  36.9578171  14.9454744  49.3587983
  36.3776840  15.6039548  48.9766035  36.6914103  14.1232089  48.9475400
  35.4081737  14.3459802  51.5609303  35.9081515  14.4576336  50.7523622
  36.0517345  14.0420855  52.2010112  29.4663733  22.2538432  64.4477144
  28.9830814  23.0538792  64.6541033  29.5524672  22.2646376  63.4944588
  22.7349692  24.0866811  52.3698964  22.7120380  24.1854499  51.4180847
  23.0450329  24.9331962  52.6916130  25.3937070  26.1442966  56.4845578
  26.3480324  26.1126909  56.4175510  25.1949594  25.6833590  57.2995804
  25.9836452  24.7144082  59.0516376  26.8029341  25.2088161  59.0751213
  26.2573260  23.7976050  59.0233943  35.7403049  17.1054835  48.4144331
  34.8528904  17.3904485  48.1964526  36.1557038  16.9448598  47.5671608
  39.0917585  17.1301356  52.1298670  39.8677975  17.6197808  52.4023287
  38.3665719  17.5559410  52.5870540  41.5290143  17.8428975  53.1872611
  42.1234634  17.6024711  52.4765919  41.6016727  17.1236105  53.8146147
  23.7487299  31.6862586  53.5015776  23.6141767  30.9262987  52.9353774
  23.3319361  32.4103486  53.0344565  34.8846262  26.8699509  42.5092351
  35.5882112  27.0749512  43.1250007  34.1608911  27.4376271  42.7741435
  35.7144072  22.6209371  48.6294621  35.6579274  23.0777922  47.7902254
  36.2672415  21.8600055  48.4517464  39.5248878  18.4099102  49.4544741
  39.2685812  18.0095738  50.2852949  38.9001746  19.1242896  49.3294880
  43.8361216  21.1495176  51.9616032  43.2760774  21.2188365  52.7347594
  43.2304719  20.9736160  51.2415528  26.9056425  32.5831903  53.7134219
  26.7888809  33.5277335  53.6112909  26.0848871  32.2805464  54.1020018
  36.7932959  27.3082039  44.5590811  37.6278563  26.8763237  44.3768286
  36.6317302  27.1364052  45.4867706  36.4478852  23.8114152  45.9247151
  36.3927655  23.6458423  44.9835595  35.8224907  24.5190185  46.0809340
  21.2371367  19.0482216  59.7508573  21.8830230  18.5381170  60.2395798
  21.0288518  19.7850898  60.3251998  33.7624759  26.1163064  65.2500713
  34.6315918  26.2903716  64.8887348  33.2831510  26.9357481  65.1276443
  29.7574977  13.3122261  45.5032469  29.7453647  14.2564101  45.6600740
  30.6498399  13.1292406  45.2091930  27.9310939  33.2360165  56.9290147
  28.8338186  33.2683775  57.2456642  27.7048309  32.3060616  56.9436483
  29.6864541  31.9891151  53.5900226  28.7360172  31.9893013  53.4764598
  29.9897027  31.2423886  53.0736260  33.5727097   9.9065037  49.7578406
  32.8059492   9.3523524  49.9035088  33.9837801   9.9786906  50.6192557
  25.5768858  16.1949833  63.8483587  26.4400319  15.8386638  64.0586912
  25.0034268  15.8563728  64.5358991  45.4217235  37.8251690  54.6545988
  46.0595644  37.7058437  53.9509328  45.3038077  38.7732534  54.7133940
  42.7126724  38.9313969  60.5493718  42.7015365  38.5366768  59.6774222
  42.8747363  38.1980042  61.1427490  40.3590192  39.0927930  56.0874262
  40.9553764  38.8683952  55.3731225  40.4165163  38.3512675  56.6899710
  39.9315220  36.5467365  43.9224453  40.1840741  36.0248886  43.1607916
  38.9939779  36.3833511  44.0251136  47.8992350  29.1999951  57.0926783
  47.5675675  30.0695362  56.8687998  47.3037964  28.8836235  57.7720814
  41.6348537  32.9395518  44.8256865  41.8022939  33.8075754  45.1927337
  41.4445706  33.1022800  43.9018155  44.3923870  41.4012497  56.4922696
  44.0924593  42.3037536  56.3838503  44.0474930  41.1344680  57.3443849
  41.6137758  35.3953175  45.8103532  41.4937383  35.8410226  46.6489013
  40.9190346  35.7438493  45.2517070  35.2045163  37.4959567  53.3603189
  35.3337544  37.7494046  54.2742601  34.5242614  38.0887275  53.0407844
  41.8661880  35.3384683  62.1155030  41.0895214  35.8978603  62.1057895
  42.5052443  35.8241466  62.6369901  40.1208252  38.1470136  61.6772997
  40.8622936  38.6855180  61.4007821  39.4145237  38.7736425  61.8344549
  45.5963592  40.2899276  60.2745159  46.0046948  39.8481687  59.5299791
  44.8740853  39.7151904  60.5279352  41.9494662  35.2271883  57.6478716
  42.7955857  35.6511297  57.7913365  41.8893299  34.5705507  58.3417279
  45.0994107  32.8876251  59.3059890  44.8555039  33.6418312  58.7694165
  45.3754037  33.2661599  60.1407137  44.6558799  32.0432685  54.8873727
  43.7943278  32.3413938  55.1790465  44.6821233  32.2603083  53.9554760
  38.8569616  35.3009784  62.4788307  38.2268276  35.9826065  62.7123704
  38.7505704  35.1892866  61.5341446  34.1514588  34.9681580  53.4054232
  33.3613642  35.2239109  52.9294342  34.6425835  35.7829918  53.5106272
  48.1678398  42.3086819  56.1559512  48.9895841  41.9067007  55.8742194
  48.1640800  42.2055053  57.1075628  36.1029333  35.3326159  50.3637708
  35.3060497  35.4444854  50.8821204  35.8754926  35.6712812  49.4978599
  32.4352291  35.2212071  55.8369222  32.6860329  36.1059080  56.1026798
  32.9711839  35.0416672  55.0644314  38.1350358  29.6030550  64.8413558
  37.7417304  29.0496748  65.5161203  38.9516499  29.9141128  65.2320076
  35.1012416  41.0414408  48.7527128  35.6136937  41.8357658  48.9032693
  35.7535129  40.3440699  48.6860730  41.0518319  31.0188429  62.4333815
  41.7928033  31.6195582  62.3538278  41.2836242  30.2766067  61.8751858
  36.1959657  36.2044796  60.7112045  36.0813172  35.3030054  61.0119144
  35.3404175  36.4508493  60.3596861  43.2751495  44.1462537  62.3099545
  42.8315349  43.3598915  61.9920450  43.9368709  44.3341687  61.6443436
  41.8305787  41.9409466  61.1804455  42.3634124  41.1797754  60.9503763
  41.3019868  41.6483118  61.9228609  44.9975482  27.0469532  56.7098097
  44.6539752  27.9371174  56.6337207  45.3654445  26.8571190  55.8467682
  42.5472876  31.8827844  50.2755770  41.6914472  31.4934694  50.0961409
  42.9599828  31.9619805  49.4155556  44.0772023  29.4174187  54.6747330
  43.5736818  29.3804322  53.8615135  44.3702630  30.3266930  54.7343987
  40.3214909  29.5012917  53.6813512  41.1867905  29.3055726  53.3219401
  40.3892417  29.2723269  54.6082868  48.1751346  39.2644479  53.8090313
  47.5175020  39.9543740  53.8970442  48.9791745  39.6540911  54.1524300
  37.9277228  31.7315125  51.0529879  38.5020980  31.5090306  50.3203071
  38.5148210  31.8003819  51.8058480  38.2546815  33.7619586  45.0725764
  37.4184127  34.0994272  45.3935039  38.1151584  33.6268566  44.1352901
  40.2299895  28.6056374  49.7804948  39.5764308  28.2905391  49.1561563
  40.1880369  27.9832114  50.5064771  44.2479179  47.5973176  44.6154926
  43.5740878  47.9004873  45.2239884  44.6345001  48.4002256  44.2660383
  46.7963148  26.3063091  51.8115834  47.1022025  25.4460455  51.5241749
  47.5215753  26.8980711  51.6114828  33.0887504  36.7093778  50.1997432
  32.8911904  36.1163138  49.4748499  32.5334168  36.4045988  50.9173371
  42.2175421  40.5297007  43.5570309  41.7794851  39.8132866  43.0975946
  42.9585862  40.7573122  42.9955400  39.0076588  35.2193944  50.0782404
  38.1944453  35.5188115  50.4847596  39.5035582  34.8249633  50.7956887
  44.6050799  35.6835768  58.9097298  44.9600187  35.9107242  59.7691764
  45.2522931  36.0154145  58.2874554  38.4990662  32.7912299  55.6943639
  39.1390042  32.6501059  54.9966603  37.6668193  32.5046813  55.3182241
  35.5833730  36.2357812  47.8838384  34.6531318  36.1742267  48.1008347
  35.6791202  35.7133764  47.0875026  35.5019279  32.7612624  50.4716626
  35.7626096  33.6757958  50.3625787  36.3236451  32.2937067  50.6213239
  36.9744204  34.1750382  57.6415451  37.6467258  33.9667744  56.9928100
  36.1473991  33.9772468  57.2020683  42.8769776  30.8012323  59.6581112
  42.2297691  31.5002272  59.5645588  43.6470792  31.2348466  60.0257360
  43.0533910  38.6393087  57.7177931  43.9825970  38.7904247  57.5446899
  42.6324940  38.7277108  56.8626578  37.3771701  37.4492985  58.4017888
  37.2391499  36.7173223  59.0029427  38.2876625  37.3601885  58.1202076
  40.0054002  37.1612944  57.8901567  40.7153621  36.5206136  57.8488186
  39.9623310  37.4125839  58.8127748  38.7182936  34.1478162  59.7097207
  38.1820293  33.6968900  60.3618803  38.1299644  34.2824071  58.9667671
  38.1285195  33.6066813  42.2723671  37.2514661  33.4855614  41.9085917
  38.6042948  32.8152892  42.0202559  29.6487335  38.3943973  52.3665178
  30.3358375  38.0805703  51.7786193  29.4935464  39.2985338  52.0932429
  34.4522057  33.2834170  56.7950201  34.3680246  32.6759839  56.0600611
  33.6304764  33.7743188  56.7959698  44.6245771  31.7687733  52.1620396
  45.1214471  31.0157695  51.8421467  43.8532753  31.8052050  51.5963606
  41.2080740  33.9105116  51.8892081  40.8378527  33.3576156  52.5772987
  41.7039832  33.3063250  51.3367081  46.8371224  36.9247219  56.8099649
  46.1842675  37.1723126  56.1552102  47.2151604  36.1111357  56.4762127
  42.8858797  37.6667030  63.2965686  42.2099434  37.5661159  63.9668062
  43.7086431  37.5106243  63.7601684  29.2255311  36.4744566  54.6382645
  29.2639411  35.9408157  55.4319763  28.7195604  35.9479772  54.0193622
  36.6046074  31.3209107  58.1345187  36.6687400  32.1823938  57.7222585
  36.5413194  30.7083108  57.4017546  36.0798346  33.3932239  61.7818221
  36.7070385  33.0109317  62.3955746  35.2226265  33.1746441  62.1473914
  46.4792455  43.7995215  63.3871957  47.0232359  44.4125173  62.8926912
  45.8979299  44.3574793  63.9038970  32.8563889  35.2008668  47.7136576
  33.1517330  34.2919347  47.6603630  31.9551925  35.1796408  47.3917579
  36.3858136  33.2764665  53.6964125  35.6644722  33.8900633  53.5571598
  37.1751392  33.8122430  53.6180771  39.1884449  30.6119092  59.9704777
  39.7118851  30.8581388  60.7331086  38.9696783  31.4439126  59.5507914
  34.5851730  32.8822766  47.8375901  34.2564437  32.0020145  47.6551007
  34.9391101  32.8270435  48.7252291  37.6993554  33.1695736  48.2051379
  38.0389626  33.6981657  47.4829987  38.1465674  33.5076142  48.9809946
  40.3936994  31.5532787  57.6554447  40.0533815  30.7540600  58.0575127
  39.6876001  31.8534497  57.0831280  41.0453466  28.6382099  56.1081770
  41.8679536  28.1642577  55.9860660  41.2891530  29.4172583  56.6080456
  39.6861701  31.6670358  46.4044672  40.4070063  32.0451610  45.9008389
  39.0627005  32.3859234  46.5079650  43.8292824  32.3715506  47.3403004
  44.0456438  33.2540144  47.0391832  43.3486891  31.9801720  46.6108646
  38.5692045  35.3301220  53.9173749  38.4236626  35.6441523  54.8098030
  38.0917249  35.9486120  53.3644647  40.4288428  32.3203768  53.9654638
  40.4149997  31.4244861  53.6286936  41.1460856  32.3274431  54.5992924
  42.2814559  32.7541108  56.0107766  42.0232336  33.6758179  56.0092096
  41.7499599  32.3571542  56.7008230  33.0437707  37.8706564  56.8561410
  32.4991175  38.6466372  56.9881684  33.9217057  38.2177369  56.6980531
  39.8325324  31.2018148  49.2342208  39.9541235  30.2734794  49.4333096
  39.5427366  31.2156834  48.3220524  42.7016514  28.8873058  52.3708928
  42.7238211  28.9512392  51.4160908  43.1184573  28.0477567  52.5649434
  33.8303729  36.9976460  59.7491567  33.0885465  37.1459096  60.3356197
  33.5096473  37.2584726  58.8858316  39.3166403  32.7150145  63.4432141
  39.3654559  33.5912268  63.0609911  39.8588918  32.1727538  62.8703784
  41.5465692  33.4681518  60.1978500  40.6769001  33.7615084  59.9261088
  41.7825172  34.0521963  60.9185763  36.5608016  38.8137458  48.3319164
  36.3154058  37.9099788  48.5299375  36.7303930  38.8154609  47.3898642
  44.2504726  29.6861135  57.7143920  44.7686669  30.4222162  57.3890409
  43.8959858  29.9925128  58.5490679  35.8303663  34.5465816  45.8305326
  35.1372908  34.6210171  45.1745362  35.5855415  33.7826160  46.3526843
  44.5017320  26.1061417  53.2344817  44.7819074  25.4384606  53.8605243
  45.2867927  26.2990513  52.7219481  48.3726178  34.5279051  56.9816392
  49.3243601  34.6277149  57.0028616  48.2029629  33.7357320  57.4914476
  46.3940558  31.6134634  57.1675793  45.7990490  31.8939647  56.4722281
  46.1090254  32.1028535  57.9392534  42.5736279  40.6698970  63.5986552
  43.4939289  40.8477569  63.7926599  42.5385862  39.7255015  63.4466252
  31.7918444  35.8637564  52.5239827  31.4721229  35.0102872  52.2314201
  31.2451872  36.0786142  53.2797794  42.4902570  29.0868090  48.2285022
  41.6803298  28.7415175  48.6040268  43.1786987  28.7775634  48.8172634
  44.4193118  28.1646137  49.8509319  44.9724157  28.5841590  50.5099342
  44.6563204  27.2381885  49.8932275  40.4426217  34.1533210  65.6312083
  40.3422944  35.1027567  65.5624174  40.2247759  33.8251449  64.7588153
  39.6439289  31.4018135  42.2152760  40.5058453  31.7273034  42.4748577
  39.8289633  30.6149631  41.7025826  40.3057487  37.5830349  64.4477144
  39.8224569  38.3830709  64.6541033  40.3918426  37.5938294  63.4944588
  46.5796803  32.4346752  48.4144331  45.6922658  32.7196403  48.1964526
  46.9950792  32.2740516  47.5671608  32.0765121  34.3774134  59.7508573
  32.7223985  33.8673088  60.2395798  31.8682272  35.1142816  60.3251998
  40.5968732  28.6414179  45.5032469  40.5847401  29.5856018  45.6600740
  41.4892153  28.4584324  45.2091930  44.4120851  25.2356955  49.7578406
  43.6453247  24.6815442  49.9035088  44.8231556  25.3078824  50.6192557
  36.4162612  31.5241751  63.8483587  37.2794074  31.1678556  64.0586912
  35.8428023  31.1855646  64.5358991  48.9744113  44.9322468  64.8413558
  48.5811058  44.3788666  65.5161203  49.7910253  45.2433046  65.2320076
  47.2556367  46.8533669  63.8483587  48.1187828  46.4970473  64.0586912
  46.6821777  46.5147563  64.5358991  67.1004743  68.4835525  54.6545988
  67.7383153  68.3642272  53.9509328  66.9825586  69.4316369  54.7133940
  63.9094450  68.4362953  54.5907513  63.5712961  68.3204018  53.7028048
  64.7784218  68.0354118  54.5708519  59.7681265  70.2898429  50.5804404
  59.2046131  70.1988366  49.8120691  59.6533661  69.4698334  51.0606896
  64.3914233  69.5897805  60.5493718  64.3802874  69.1950603  59.6774222
  64.5534872  68.8563877  61.1427490  57.3145697  71.7849621  53.4188624
  58.1066989  71.4440446  53.0034923  57.5542348  71.8944596  54.3390777
  65.3480824  73.9569397  45.8918869  64.6968804  74.5423478  45.5052882
  66.1425187  74.4875592  45.9513906  61.1121494  72.3734917  59.4972902
  60.8211360  73.2780547  59.3819568  61.7478478  72.4151444  60.2116972
  62.0377701  69.7511765  56.0874262  62.6341273  69.5267788  55.3731225
  62.0952672  69.0096511  56.6899710  66.6546012  66.2086979  51.7299196
  67.4409101  65.7906402  51.3789613  66.9184716  67.1133071  51.8980844
  66.8256089  71.6459829  46.4287853  66.1901922  71.7194456  47.1408757
  66.4953496  72.2353428  45.7506932  72.0554439  66.1462212  52.6332175
  72.7879611  65.5761429  52.8670004  71.2993795  65.7583812  53.0738680
  63.6730559  68.5689454  49.8295517  63.3088766  68.0420074  50.5408438
  64.5297675  68.1787923  49.6562002  69.5779859  59.8583786  57.0926783
  69.2463184  60.7279197  56.8687998  68.9825473  59.5420070  57.7720814
  66.0711379  72.0596332  56.4922696  65.7712102  72.9621371  56.3838503
  65.7262438  71.7928515  57.3443849  59.5223860  68.5110129  52.5259400
  58.5974357  68.3786343  52.7337092  59.7708274  69.2904348  53.0229343
  69.4708523  64.5778872  54.1720133  68.5625400  64.5094281  53.8778894
  69.4196119  65.0550817  55.0001959  61.0532159  78.8240652  49.4593664
  60.9756188  79.7748478  49.5382144  60.4493802  78.4786525  50.1168590
  63.5449389  65.9968518  62.1155030  62.7682723  66.5562438  62.1057895
  64.1839952  66.4825301  62.6369901  71.3370169  62.7795311  55.9498007
  70.6944549  63.0727844  55.3037802  70.8325098  62.6648231  56.7551204
  68.9910333  66.5258484  46.6383866  69.9028189  66.7585871  46.4631564
  68.4819980  67.1095528  46.0758945  61.7995761  68.8053971  61.6772997
  62.5410445  69.3439015  61.4007821  61.0932746  69.4320260  61.8344549
  67.2751100  70.9483112  60.2745159  67.6834457  70.5065522  59.5299791
  66.5528362  70.3735739  60.5279352  63.6282171  65.8855718  57.6478716
  64.4743366  66.3095132  57.7913365  63.5680808  65.2289343  58.3417279
  67.5979915  71.5084302  54.0297448  66.9688778  71.6730016  53.3273516
  67.2105577  71.9225912  54.8008412  71.4769147  72.4438740  51.3841812
  70.7920185  72.8237642  50.8338845  71.5612996  73.0534067  52.1173759
  66.7781616  63.5460087  59.3059890  66.5342548  64.3002147  58.7694165
  67.0541546  63.9245434  60.1407137  68.7320079  70.0898699  57.9837155
  68.9436974  70.7330459  57.3071536  68.6849827  69.2561016  57.5159085
  66.3346308  62.7016520  54.8873727  65.4730787  62.9997773  55.1790465
  66.3608742  62.9186919  53.9554760  63.1507877  71.2458710  51.2947533
  63.6146223  71.5246413  50.5052155  62.8864675  70.3442155  51.1120624
  60.0431958  70.7930192  54.2327296  60.6133315  71.2217460  53.5944781
  60.6340070  70.5112777  54.9311482  69.8465907  72.9670655  56.1559512
  70.6683350  72.5650842  55.8742194  69.8428309  72.8638889  57.1075628
  63.6122510  72.5154698  58.3120223  63.6766943  72.9775105  59.1478395
  62.9033434  71.8852063  58.4402533  77.9371900  69.3109403  52.5044484
  77.1835608  68.7416801  52.3488488  78.0719441  69.2772068  53.4515119
  63.3270528  74.1822805  48.1799203  63.1916202  75.0274341  48.6084051
  63.8680340  74.3842083  47.4165137  58.5894810  74.8164000  50.8349882
  58.7661438  75.7381964  50.6470865  59.3851643  74.5022419  51.2644261
  64.9539004  74.8046372  62.3099545  64.5102858  74.0182750  61.9920450
  65.6156218  74.9925522  61.6443436  59.7126125  76.3342174  56.8360224
  60.2633550  76.2059237  56.0637218  58.8737601  76.6337063  56.4855117
  67.0520242  75.0849172  60.3380947  67.0338717  75.9058053  59.8461216
  67.9740162  74.9603247  60.5631088  63.5093296  72.5993301  61.1804455
  64.0421633  71.8381590  60.9503763  62.9807377  72.3066953  61.9228609
  66.6762991  57.7053367  56.7098097  66.3327261  58.5955009  56.6337207
  67.0441954  57.5155025  55.8467682  65.7559532  60.0758022  54.6747330
  65.2524327  60.0388158  53.8615135  66.0490139  60.9850765  54.7343987
  71.6147548  70.4494333  47.1523705  70.8376991  70.1105493  46.7078867
  72.2939029  70.4546956  46.4778670  64.8746009  71.7279294  48.6923267
  64.3467371  70.9932053  48.3796504  64.3733512  72.5053970  48.4463235
  69.8538855  69.9228314  53.8090313  69.1962529  70.6127576  53.8970442
  70.6579254  70.3124746  54.1524300  68.6644314  68.2772687  51.8594255
  69.1776196  68.9102679  52.3615965  69.3145538  67.6773883  51.4937615
  65.9266688  78.2557011  44.6154926  65.2528387  78.5588708  45.2239884
  66.3132510  79.0586092  44.2660383  65.1425145  65.7522143  54.1052596
  64.2247706  65.9737090  53.9474284  65.5585288  65.8268453  53.2464303
  65.9260192  67.1513558  49.2355276  66.6732011  67.6634955  48.9262398
  66.1951782  66.8297611  50.0959669  69.4306110  73.2578688  49.9873398
  68.9768437  72.4169598  50.0438588  68.8000077  73.8940087  50.3248178
  68.3739030  64.1870674  51.2174065  67.6361786  63.6748061  51.5484308
  68.6265803  63.7471056  50.4057342  67.8739049  75.0955185  50.9223216
  68.1662024  75.6560242  50.2035581  68.3837670  75.3883746  51.6776375
  63.8962930  71.1880843  43.5570309  63.4582360  70.4716702  43.0975946
  64.6373371  71.4156957  42.9955400  62.8372674  75.8735536  52.0116669
  62.7948853  76.0996383  51.0825201  63.7535373  75.6398911  52.1602470
  66.2838308  66.3419604  58.9097298  66.6387696  66.5691077  59.7691764
  66.9310439  66.6737981  58.2874554  72.0136045  69.4638040  49.6146627
  71.8753944  69.6539636  48.6867816  71.6572264  70.2257422  50.0714678
  72.0405425  71.5314567  54.6257899  72.4741931  71.4389856  55.4740953
  72.7537006  71.5072067  53.9877915  60.9538475  72.7498565  51.8078632
  61.7479074  72.2548885  51.6061207  60.2430168  72.2216428  51.4446337
  65.7733320  75.1316661  56.1590999  65.8270342  75.7007597  56.9268715
  64.9048101  75.3018546  55.7945037  72.9020974  71.5738267  57.1590784
  73.0956864  72.4784078  57.4050059  72.8021593  71.1145686  57.9929369
  67.9636083  71.7245010  62.7331665  67.8121589  71.4955562  61.8161748
  67.9540763  72.6815611  62.7463010  64.7321419  69.2976923  57.7177931
  65.6613479  69.4488082  57.5446899  64.3112449  69.3860944  56.8626578
  63.5309751  73.3227587  55.4876469  63.3920837  72.9546372  56.3602407
  62.7424347  73.8375227  55.3160427  64.1257903  78.4236684  46.8302005
  64.3009659  77.9524727  47.6447628  63.4390691  79.0502450  47.0583266
  65.0814966  72.7009190  52.8765307  64.7464799  72.6609960  53.7722957
  64.5818912  72.0353906  52.4035717  59.0559210  68.1076820  58.4017888
  58.9179008  67.3757059  59.0029427  59.9664134  68.0185720  58.1202076
  68.0174158  70.0465224  43.1502366  67.4003329  69.3212052  43.0535419
  67.5490646  70.8074585  42.8069441  61.6841511  67.8196779  57.8901567
  62.3941130  67.1789971  57.8488186  61.6410819  68.0709674  58.8127748
  69.6728290  74.7564133  60.8108147  69.6140836  74.0723353  60.1438730
  70.0747808  75.4983123  60.3588773  58.6918988  81.5726046  53.6041866
  58.9315587  82.2044571  54.2820884  57.8488185  81.2214086  53.8907225
  69.6745697  72.7203717  59.0422126  68.7872476  72.3829638  59.1648525
  70.2444248  71.9886748  59.2790892  63.2046850  77.3805169  56.0083370
  63.1317022  78.1860140  56.5202674  62.7624243  77.5797135  55.1831391
  62.9936630  76.6176939  49.5186191  62.2104152  77.1598619  49.6124416
  63.6929375  77.1350919  49.9180432  66.3033280  62.4271568  52.1620396
  66.8001980  61.6741531  51.8421467  65.5320262  62.4635885  51.5963606
  74.1563038  68.1311934  53.8038688  74.1452914  69.0136649  53.4332621
  73.2880417  67.7783485  53.6093225  65.6645534  77.2792003  58.1641528
  66.3773506  77.9139468  58.0917430  65.1735563  77.3755869  57.3481530
  67.3863061  71.1843256  49.7358820  66.4519340  71.3044718  49.5663524
  67.5639729  70.2815722  49.4718830  70.7735612  67.0260575  50.2708854
  71.2396064  67.8588566  50.1969157  71.2243113  66.5605556  50.9754112
  60.7157447  75.0286446  58.9847099  61.4166907  75.6622929  59.1376493
  60.2452562  75.3701178  58.2242738  68.8411843  73.3704396  47.2695006
  69.1171687  73.2560991  48.1788880  67.9716342  72.9721881  47.2307179
  68.7452275  59.3941162  54.3099755  67.8315355  59.6245389  54.4781962
  69.1745376  59.4779606  55.1613788  68.5158733  67.5831054  56.8099649
  67.8630184  67.8306961  56.1552102  68.8939113  66.7695192  56.4762127
  65.4765907  77.6190747  50.9127820  65.6588302  76.8012403  51.3755572
  66.2998893  77.8358439  50.4752710  65.8108073  76.5458932  48.1742868
  66.3395839  76.0351387  47.5613030  66.0736292  76.2301462  49.0388401
  64.5646306  68.3250865  63.2965686  63.8886943  68.2244994  63.9668062
  65.3873940  68.1690079  63.7601684  56.3125165  74.5622801  55.9178202
  56.8978602  73.8166489  56.0506106  56.1150004  74.8726758  56.8014866
  59.1663821  77.5974049  50.9340644  58.4974196  78.0820176  50.4504684
  59.0276690  77.8443269  51.8484023  63.3069089  79.6317792  57.5323302
  63.8587397  79.7949414  58.2972388  63.6475283  80.2222230  56.8603327
  68.1579964  74.4579050  63.3871957  68.7019868  75.0709008  62.8926912
  67.5766808  75.0158628  63.9038970  66.4437477  77.5799768  54.5186985
  66.3188616  76.7789508  54.0097930  67.1016568  78.0745961  54.0300955
  68.5072385  75.3808788  56.1466535  67.5602720  75.2614139  56.0744861
  68.8555158  74.4931286  56.2292796  65.5118818  75.1761504  52.3470887
  65.3643781  74.2478212  52.5278457  66.3372312  75.1981595  51.8627962
  69.1152940  75.9990063  53.4335760  70.0399488  75.7932924  53.2960211
  68.9468243  75.7506464  54.3425101  63.9602068  63.4124943  56.0107766
  63.7019845  64.3342014  56.0092096  63.4287108  63.0155378  56.7008230
  68.9048256  76.5175730  48.7897851  69.0785134  75.9522153  48.0371704
  69.3977148  77.3176625  48.6077341  64.3804023  59.5456894  52.3708928
  64.4025720  59.6096227  51.4160908  64.7972082  58.7061402  52.5649434
  74.7587647  69.2812153  50.4088151  75.2018794  68.5319479  50.0107274
  73.8814158  69.2722290  50.0261883  69.8923429  75.8342495  45.8894749
  70.5874333  76.4549187  46.1082064  70.2346579  74.9837846  46.1647127
  71.7914852  73.2842200  47.4182080  72.3166176  73.6229473  46.6931400
  71.7037204  72.3489216  47.2345215  63.4534901  77.1976274  59.5471957
  63.7622027  76.9525421  60.4194656  64.2510383  77.4022912  59.0590827
  63.4755513  79.3514184  51.7777333  63.0360503  78.8590562  52.4710190
  64.2263630  78.8087151  51.5369409  55.9547852  75.5425724  51.7801961
  56.7805872  75.2429496  51.4000605  55.6041904  74.7733347  52.2291750
  60.9229385  74.8952193  53.8499635  60.3009394  74.2322898  53.5501863
  61.5934252  74.9213325  53.1673283  54.1556457  73.4612051  52.7390895
  53.3188365  73.0334225  52.5574896  54.1280102  73.6544494  53.6761686
  71.4808758  73.9175104  62.7233278  70.6904302  73.8999243  62.1837778
  71.2442113  74.4563398  63.4782315  71.6006633  70.7667570  60.0366007
  71.6504638  70.6017578  60.9781529  71.4920556  69.8994829  59.6463887
  68.8910395  66.7498498  61.3525313  69.7920258  66.6104963  61.0609311
  68.9658370  66.9152953  62.2923491  73.1024830  73.1864512  60.2808028
  72.8109638  73.5494492  61.1171489  72.4896961  72.4731520  60.1021360
  74.3020512  70.7517392  52.8010598  75.1367404  71.1907196  52.9648159
  74.4379641  70.2756045  51.9818844  71.3512018  68.3097126  58.7488086
  71.8266140  68.5024773  57.9406938  70.4277583  68.3656312  58.5031470
  65.9292235  60.3444970  57.7143920  66.4474178  61.0805997  57.3890409
  65.5747367  60.6508963  58.5490679  63.9838297  75.9404246  44.7969843
  63.4112264  76.5594434  44.3440315  64.5571091  76.4903608  45.3309765
  70.0513687  65.1862887  56.9816392  71.0031110  65.2860984  57.0028616
  69.8817138  64.3941155  57.4914476  68.0728067  62.2718470  57.1675793
  67.4777999  62.5523482  56.4722281  67.7877763  62.7612371  57.9392534
  67.2035557  76.2241397  45.9278425  68.1366230  76.1586958  46.1311301
  67.1158770  77.0597663  45.4692958  69.8323574  75.5407267  42.8882373
  69.7537205  75.2067131  43.7818131  70.6533240  76.0329035  42.8873845
  72.5301765  68.4069006  56.0958691  72.4978085  67.4685007  56.2818375
  73.1402389  68.4853043  55.3624516  72.6796253  65.1980050  56.1416975
  72.1635302  64.4138506  55.9546903  73.5636202  64.8698766  56.3063494
  70.3406980  58.9421065  52.1012787  70.1431801  58.6336153  52.9856119
  70.9506686  59.6682704  52.2310717  78.3478315  69.4685013  55.2364728
  79.0781703  69.2070301  55.7972432  77.7385260  68.7313735  55.2766796
  76.4293612  67.6092876  55.8339179  75.7026775  67.4748841  55.2255671
  76.0140899  67.9169704  56.6395897  64.2523788  71.3282805  63.5986552
  65.1726798  71.5061404  63.7926599  64.2173371  70.3838851  63.4466252
  61.9844996  68.2414185  64.4477144  61.5012078  69.0414545  64.6541033
  62.0705935  68.2522129  63.4944588  57.9118334  72.1318719  56.4845578
  58.8661587  72.1002662  56.4175510  57.7130857  71.6709343  57.2995804
  58.5017716  70.7019835  59.0516376  59.3210605  71.1963914  59.0751213
  58.7754524  69.7851803  59.0233943  71.6098848  63.1177109  52.1298670
  72.3859238  63.6073561  52.4023287  70.8846982  63.5435163  52.5870540
  74.0471407  63.8304728  53.1872611  74.6415898  63.5900464  52.4765919
  74.1197990  63.1111858  53.8146147  56.2668562  77.6738339  53.5015776
  56.1323030  76.9138740  52.9353774  55.8500625  78.3979239  53.0344565
  67.4027525  72.8575262  42.5092351  68.1063376  73.0625265  43.1250007
  66.6790174  73.4252024  42.7741435  68.2325336  68.6085124  48.6294621
  68.1760537  69.0653675  47.7902254  68.7853678  67.8475808  48.4517464
  72.0430142  64.3974855  49.4544741  71.7867076  63.9971491  50.2852949
  71.4183010  65.1118649  49.3294880  76.3542480  67.1370929  51.9616032
  75.7942038  67.2064118  52.7347594  75.7485983  66.9611913  51.2415528
  59.4237688  78.5707656  53.7134219  59.3070072  79.5153088  53.6112909
  58.6030135  78.2681217  54.1020018  69.3114223  73.2957792  44.5590811
  70.1459827  72.8638990  44.3768286  69.1498566  73.1239805  45.4867706
  68.9660115  69.7989905  45.9247151  68.9108919  69.6334176  44.9835595
  68.3406170  70.5065938  46.0809340  66.2806022  72.1038817  65.2500713
  67.1497182  72.2779469  64.8887348  65.8012774  72.9233234  65.1276443
  60.4492202  79.2235918  56.9290147  61.3519449  79.2559528  57.2456642
  60.2229573  78.2936369  56.9436483  62.2045804  77.9766904  53.5900226
  61.2541435  77.9768766  53.4764598  62.5078291  77.2299639  53.0736260
  77.9398498  83.8127443  54.6545988  78.5776908  83.6934190  53.9509328
  77.8219341  84.7608287  54.7133940  74.7488204  83.7654871  54.5907513
  74.4106716  83.6495935  53.7028048  75.6177972  83.3646036  54.5708519
  70.6075020  85.6190347  50.5804404  70.0439885  85.5280284  49.8120691
  70.4927415  84.7990252  51.0606896  75.2307987  84.9189722  60.5493718
  75.2196628  84.5242521  59.6774222  75.3928627  84.1855795  61.1427490
  68.1539452  87.1141539  53.4188624  68.9460744  86.7732363  53.0034923
  68.3936102  87.2236514  54.3390777  76.1874579  89.2861315  45.8918869
  75.5362558  89.8715395  45.5052882  76.9818941  89.8167510  45.9513906
  70.1130206  86.3750452  46.2906003  70.8861082  85.8279439  46.1518879
  70.4655605  87.2394701  46.5020464  71.9515248  87.7026834  59.4972902
  71.6605114  88.6072465  59.3819568  72.5872233  87.7443362  60.2116972
  72.8771455  85.0803683  56.0874262  73.4735027  84.8559705  55.3731225
  72.9346427  84.3388428  56.6899710  72.4496484  82.5343118  43.9224453
  72.7022004  82.0124639  43.1607916  71.5121043  82.3709264  44.0251136
  77.4939766  81.5378896  51.7299196  78.2802856  81.1198320  51.3789613
  77.7578471  82.4424989  51.8980844  77.6649844  86.9751747  46.4287853
  77.0295677  87.0486373  47.1408757  77.3347250  87.5645346  45.7506932
  82.8948194  81.4754130  52.6332175  83.6273366  80.9053347  52.8670004
  82.1387549  81.0875730  53.0738680  72.1692772  84.4371224  46.1248828
  72.0529030  83.7616127  46.7929912  72.2795032  83.9503598  45.3080981
  74.5124313  83.8981371  49.8295517  74.1482521  83.3711992  50.5408438
  75.3691429  83.5079840  49.6562002  80.4173614  75.1875704  57.0926783
  80.0856939  76.0571115  56.8687998  79.8219227  74.8711988  57.7720814
  74.1529800  78.9271271  44.8256865  74.3204203  79.7951507  45.1927337
  73.9626969  79.0898553  43.9018155  76.9105133  87.3888250  56.4922696
  76.6105857  88.2913289  56.3838503  76.5656193  87.1220433  57.3443849
  70.3617615  83.8402047  52.5259400  69.4368111  83.7078261  52.7337092
  70.6102028  84.6196266  53.0229343  80.3102277  79.9070790  54.1720133
  79.4019155  79.8386198  53.8778894  80.2589873  80.3842735  55.0001959
  74.1319021  81.3828928  45.8103532  74.0118646  81.8285979  46.6489013
  73.4371610  81.7314246  45.2517070  67.7226426  83.4835320  53.3603189
  67.8518807  83.7369799  54.2742601  67.0423877  84.0763028  53.0407844
  71.8925913  94.1532570  49.4593664  71.8149943  95.1040395  49.5382144
  71.2887557  93.8078443  50.1168590  74.3843143  81.3260436  62.1155030
  73.6076477  81.8854356  62.1057895  75.0233706  81.8117219  62.6369901
  82.1763924  78.1087228  55.9498007  81.5338304  78.4019762  55.3037802
  81.6718852  77.9940149  56.7551204  79.8304087  81.8550402  46.6383866
  80.7421943  82.0877788  46.4631564  79.3213734  82.4387446  46.0758945
  72.6389515  84.1345889  61.6772997  73.3804200  84.6730933  61.4007821
  71.9326501  84.7612178  61.8344549  78.1144855  86.2775029  60.2745159
  78.5228211  85.8357440  59.5299791  77.3922116  85.7027657  60.5279352
  74.4675925  81.2147636  57.6478716  75.3137120  81.6387050  57.7913365
  74.4074563  80.5581260  58.3417279  78.4373670  86.8376220  54.0297448
  77.8082532  87.0021934  53.3273516  78.0499332  87.2517830  54.8008412
  82.3162902  87.7730658  51.3841812  81.6313940  88.1529559  50.8338845
  82.4006751  88.3825985  52.1173759  77.6175370  78.8752005  59.3059890
  77.3736302  79.6294065  58.7694165  77.8935301  79.2537352  60.1407137
  79.5713833  85.4190617  57.9837155  79.7830728  86.0622377  57.3071536
  79.5243581  84.5852933  57.5159085  77.1740062  78.0308438  54.8873727
  76.3124541  78.3289691  55.1790465  77.2002497  78.2478836  53.9554760
  73.9901632  86.5750628  51.2947533  74.4539977  86.8538331  50.5052155
  73.7258430  85.6734073  51.1120624  70.8825713  86.1222110  54.2327296
  71.4527070  86.5509378  53.5944781  71.4733824  85.8404694  54.9311482
  72.9270518  82.6973780  48.1037098  73.6294561  83.1494824  48.5711024
  72.5951146  82.0557599  48.7316991  71.3750879  81.2885537  62.4788307
  70.7449540  81.9701818  62.7123704  71.2686967  81.1768619  61.5341446
  66.6695852  80.9557333  53.4054232  65.8794906  81.2114862  52.9294342
  67.1607099  81.7705671  53.5106272  80.6859661  88.2962572  56.1559512
  81.5077105  87.8942760  55.8742194  80.6822064  88.1930806  57.1075628
  68.6210597  81.3201912  50.3637708  67.8241760  81.4320607  50.8821204
  68.3936189  81.6588565  49.4978599  74.4516265  87.8446616  58.3120223
  74.5160697  88.3067023  59.1478395  73.7427188  87.2143981  58.4402533
  64.9533555  81.2087824  55.8369222  65.2041593  82.0934834  56.1026798
  65.4893103  81.0292425  55.0644314  88.7765654  84.6401321  52.5044484
  88.0229363  84.0708719  52.3488488  88.9113195  84.6063985  53.4515119
  74.1664282  89.5114723  48.1799203  74.0309957  90.3566259  48.6084051
  74.7074095  89.7134001  47.4165137  70.6531622  75.5906303  64.8413558
  70.2598567  75.0372502  65.5161203  71.4697762  75.9016881  65.2320076
  67.6193680  87.0290161  48.7527128  68.1318200  87.8233411  48.9032693
  68.2716392  86.3316452  48.6860730  69.4288564  90.1455917  50.8349882
  69.6055193  91.0673882  50.6470865  70.2245398  89.8314337  51.2644261
  73.5699583  77.0064182  62.4333815  74.3109296  77.6071335  62.3538278
  73.8017506  76.2641820  61.8751858  68.7140921  82.1920549  60.7112045
  68.5994436  81.2905807  61.0119144  67.8585439  82.4384246  60.3596861
  75.7932759  90.1338290  62.3099545  75.3496613  89.3474668  61.9920450
  76.4549972  90.3217440  61.6443436  70.5519880  91.6634091  56.8360224
  71.1027305  91.5351155  56.0637218  69.7131356  91.9628980  56.4855117
  77.8913997  90.4141090  60.3380947  77.8732472  91.2349971  59.8461216
  78.8133917  90.2895165  60.5631088  74.3487051  87.9285219  61.1804455
  74.8815388  87.1673507  60.9503763  73.8201132  87.6358871  61.9228609
  77.5156746  73.0345285  56.7098097  77.1721015  73.9246927  56.6337207
  77.8835708  72.8446943  55.8467682  65.5842596  85.3578815  49.5286699
  66.4217818  85.7675824  49.3120407  65.7620864  84.4178258  49.4986893
  77.4807028  83.0253896  45.2170532  76.9653652  83.7958501  45.4558919
  77.2084337  82.3519032  45.8403593  75.0654140  77.8703597  50.2755770
  74.2095736  77.4810447  50.0961409  75.4781091  77.9495558  49.4155556
  76.5953286  75.4049940  54.6747330  76.0918082  75.3680075  53.8615135
  76.8883893  76.3142683  54.7343987  72.8396172  75.4888670  53.6813512
  73.7049169  75.2931479  53.3219401  72.9073681  75.2599022  54.6082868
  82.4541303  85.7786251  47.1523705  81.6770745  85.4397410  46.7078867
  83.1332784  85.7838874  46.4778670  77.2693332  80.8980988  47.0430313
  76.9643467  81.2127137  47.8940456  78.2223774  80.9762408  47.0857646
  75.7139763  87.0571212  48.6923267  75.1861125  86.3223971  48.3796504
  75.2127266  87.8345888  48.4463235  80.6932610  85.2520232  53.8090313
  80.0356284  85.9419493  53.8970442  81.4973009  85.6416664  54.1524300
  70.4458491  77.7190878  51.0529879  71.0202243  77.4966059  50.3203071
  71.0329474  77.7879572  51.8058480  79.5038068  83.6064605  51.8594255
  80.0169950  84.2394597  52.3615965  80.1539292  83.0065800  51.4937615
  70.7728078  79.7495339  45.0725764  69.9365390  80.0870025  45.3935039
  70.6332848  79.6144319  44.1352901  72.7481159  74.5932127  49.7804948
  72.0945571  74.2781144  49.1561563  72.7061633  73.9707867  50.5064771
  73.8592364  84.8751422  41.6958240  72.9519425  84.6440675  41.8949389
  74.3563396  84.0789041  41.8832222  76.7660443  93.5848929  44.6154926
  76.0922141  93.8880626  45.2239884  77.1526265  94.3878009  44.2660383
  75.9818899  81.0814060  54.1052596  75.0641461  81.3029007  53.9474284
  76.3979043  81.1560371  53.2464303  76.7653947  82.4805476  49.2355276
  77.5125766  82.9926873  48.9262398  77.0345536  82.1589529  50.0959669
  75.0380597  84.9764017  46.2182230  74.1291816  84.6923049  46.3154700
  75.0675681  85.3963095  45.3585537  80.2699865  88.5870606  49.9873398
  79.8162192  87.7461516  50.0438588  79.6393831  89.2232005  50.3248178
  79.2132784  79.5162592  51.2174065  78.4755541  79.0039978  51.5484308
  79.4659558  79.0762974  50.4057342  78.7132804  90.4247103  50.9223216
  79.0055778  90.9852160  50.2035581  79.2231424  90.7175664  51.6776375
  79.3144411  72.2938844  51.8115834  79.6203288  71.4336208  51.5241749
  80.0397016  72.8856464  51.6114828  65.6068767  82.6969531  50.1997432
  65.4093167  82.1038891  49.4748499  65.0515431  82.3921741  50.9173371
  73.5865491  82.5892637  52.3192025  73.6414101  81.6366474  52.2434502
  72.7756693  82.7452076  52.8033324  74.7356685  86.5172760  43.5570309
  74.2976115  85.8008619  43.0975946  75.4767126  86.7448875  42.9955400
  71.5257851  81.2069697  50.0782404  70.7125717  81.5063868  50.4847596
  72.0216845  80.8125386  50.7956887  73.6766429  91.2027454  52.0116669
  73.6342608  91.4288300  51.0825201  74.5929128  90.9690829  52.1602470
  77.1232063  81.6711521  58.9097298  77.4781450  81.8982995  59.7691764
  77.7704194  82.0029898  58.2874554  82.8529800  84.7929957  49.6146627
  82.7147698  84.9831553  48.6867816  82.4966019  85.5549340  50.0714678
  71.0171926  78.7788053  55.6943639  71.6571305  78.6376812  54.9966603
  70.1849456  78.4922566  55.3182241  82.8799179  86.8606484  54.6257899
  83.3135686  86.7681773  55.4740953  83.5930760  86.8363985  53.9877915
  71.7932230  88.0790483  51.8078632  72.5872828  87.5840803  51.6061207
  71.0823922  87.5508346  51.4446337  76.6127074  90.4608578  56.1590999
  76.6664096  91.0299515  56.9268715  75.7441856  90.6310463  55.7945037
  68.1014993  82.2233565  47.8838384  67.1712581  82.1618020  48.1008347
  68.1972465  81.7009517  47.0875026  68.0200542  78.7488377  50.4716626
  68.2807360  79.6633711  50.3625787  68.8417715  78.2812820  50.6213239
  69.4925468  80.1626135  57.6415451  70.1648521  79.9543497  56.9928100
  68.6655254  79.9648221  57.2020683  83.7414729  86.9030185  57.1590784
  83.9350619  87.8075996  57.4050059  83.6415347  86.4437604  57.9929369
  75.3951040  76.7888076  59.6581112  74.7478955  77.4878025  59.5645588
  76.1652055  77.2224220  60.0257360  78.8029838  87.0536928  62.7331665
  78.6515344  86.8247479  61.8161748  78.7934517  88.0107529  62.7463010
  75.5715174  84.6268840  57.7177931  76.5007234  84.7780000  57.5446899
  75.1506204  84.7152861  56.8626578  74.3703506  88.6519505  55.4876469
  74.2314591  88.2838289  56.3602407  73.5818102  89.1667144  55.3160427
  74.9651658  93.7528601  46.8302005  75.1403413  93.2816645  47.6447628
  74.2784446  94.3794368  47.0583266  75.9208721  88.0301108  52.8765307
  75.5858553  87.9901878  53.7722957  75.4212667  87.3645824  52.4035717
  69.8952965  83.4368738  58.4017888  69.7572763  82.7048976  59.0029427
  70.8057888  83.3477638  58.1202076  78.8567913  85.3757142  43.1502366
  78.2397083  84.6503970  43.0535419  78.3884401  86.1366502  42.8069441
  72.5235266  83.1488697  57.8901567  73.2334884  82.5081889  57.8488186
  72.4804574  83.4001592  58.8127748  80.5122044  90.0856050  60.8108147
  80.4534590  89.4015270  60.1438730  80.9141563  90.8275040  60.3588773
  71.2364199  80.1353915  59.7097207  70.7001557  79.6844653  60.3618803
  70.6480908  80.2699824  58.9667671  69.5312743  96.9017964  53.6041866
  69.7709341  97.5336488  54.2820884  68.6881939  96.5506004  53.8907225
  70.6466458  79.5942566  42.2723671  69.7695925  79.4731367  41.9085917
  71.1224212  78.8028645  42.0202559  80.5139451  88.0495634  59.0422126
  79.6266230  87.7121556  59.1648525  81.0838003  87.3178665  59.2790892
  62.1668599  84.3819726  52.3665178  62.8539638  84.0681456  51.7786193
  62.0116727  85.2861091  52.0932429  66.9703321  79.2709923  56.7950201
  66.8861509  78.6635592  56.0600611  66.1486027  79.7618941  56.7959698
  74.0440605  92.7097087  56.0083370  73.9710776  93.5152058  56.5202674
  73.6017998  92.9089052  55.1831391  73.8330384  91.9468857  49.5186191
  73.0497906  92.4890537  49.6124416  74.5323130  92.4642836  49.9180432
  77.1427035  77.7563486  52.1620396  77.6395734  77.0033448  51.8421467
  76.3714016  77.7927803  51.5963606  84.9956792  83.4603852  53.8038688
  84.9846668  84.3428567  53.4332621  84.1274171  83.1075402  53.6093225
  76.5039288  92.6083921  58.1641528  77.2167261  93.2431385  58.0917430
  76.0129317  92.7047787  57.3481530  78.2256815  86.5135173  49.7358820
  77.2913094  86.6336636  49.5663524  78.4033484  85.6107640  49.4718830
  73.7262003  79.8980869  51.8892081  73.3559791  79.3451909  52.5772987
  74.2221096  79.2939003  51.3367081  81.6129367  82.3552493  50.2708854
  82.0789819  83.1880484  50.1969157  82.0636867  81.8897474  50.9754112
  71.5551202  90.3578364  58.9847099  72.2560661  90.9914847  59.1376493
  71.0846317  90.6993096  58.2242738  79.6805598  88.6996314  47.2695006
  79.9565442  88.5852908  48.1788880  78.8110096  88.3013799  47.2307179
  79.5846029  74.7233080  54.3099755  78.6709109  74.9537306  54.4781962
  80.0139131  74.8071524  55.1613788  79.3552488  82.9122972  56.8099649
  78.7023938  83.1598879  56.1552102  79.7332868  82.0987110  56.4762127
  76.3159662  92.9482665  50.9127820  76.4982056  92.1304321  51.3755572
  77.1392648  93.1650357  50.4752710  76.6501827  91.8750850  48.1742868
  77.1789594  91.3643304  47.5613030  76.9130047  91.5593380  49.0388401
  75.4040061  83.6542783  63.2965686  74.7280698  83.5536912  63.9668062
  76.2267695  83.4981996  63.7601684  67.1518920  89.8914719  55.9178202
  67.7372357  89.1458407  56.0506106  66.9543758  90.2018676  56.8014866
  70.0057575  92.9265967  50.9340644  69.3367950  93.4112094  50.4504684
  69.8670445  93.1735187  51.8484023  61.7436575  82.4620319  54.6382645
  61.7820674  81.9283910  55.4319763  61.2376868  81.9355525  54.0193622
  74.1462844  94.9609710  57.5323302  74.6981152  95.1241332  58.2972388
  74.4869037  95.5514148  56.8603327  69.1227337  77.3084860  58.1345187
  69.1868663  78.1699691  57.7222585  69.0594457  76.6958861  57.4017546
  68.5979610  79.3807992  61.7818221  69.2251648  78.9985070  62.3955746
  67.7407528  79.1622194  62.1473914  78.9973718  89.7870968  63.3871957
  79.5413622  90.4000926  62.8926912  78.4160563  90.3450546  63.9038970
  65.3745152  81.1884421  47.7136576  65.6698593  80.2795100  47.6603630
  64.4733188  81.1672161  47.3917579  77.2831231  92.9091686  54.5186985
  77.1582371  92.1081425  54.0097930  77.9410322  93.4037879  54.0300955
  68.9039399  79.2640418  53.6964125  68.1825985  79.8776386  53.5571598
  69.6932655  79.7998183  53.6180771  79.3466139  90.7100706  56.1466535
  78.3996475  90.5906057  56.0744861  79.6948913  89.8223204  56.2292796
  71.7065713  76.5994845  59.9704777  72.2300115  76.8457141  60.7331086
  71.4878046  77.4314879  59.5507914  67.1032994  78.8698519  47.8375901
  66.7745700  77.9895898  47.6551007  67.4572365  78.8146188  48.7252291
  76.3512573  90.5053422  52.3470887  76.2037535  89.5770129  52.5278457
  77.1766066  90.5273513  51.8627962  70.2174817  79.1571489  48.2051379
  70.5570890  79.6857410  47.4829987  70.6646937  79.4951895  48.9809946
  79.9546695  91.3281981  53.4335760  80.8793242  91.1224842  53.2960211
  79.7861998  91.0798382  54.3425101  72.9118258  77.5408540  57.6554447
  72.5715078  76.7416353  58.0575127  72.2057264  77.8410251  57.0831280
  73.5634730  74.6257852  56.1081770  74.3860799  74.1518330  55.9860660
  73.8072793  75.4048336  56.6080456  72.2042964  77.6546111  46.4044672
  72.9251327  78.0327363  45.9008389  71.5808268  78.3734987  46.5079650
  76.3474087  78.3591260  47.3403004  76.5637701  79.2415897  47.0391832
  75.8668154  77.9677473  46.6108646  71.0873308  81.3176973  53.9173749
  70.9417889  81.6317276  54.8098030  70.6098512  81.9361873  53.3644647
  72.9469691  78.3079521  53.9654638  72.9331260  77.4120614  53.6286936
  73.6642119  78.3150184  54.5992924  74.7995822  78.7416861  56.0107766
  74.5413600  79.6633932  56.0092096  74.2680862  78.3447295  56.7008230
  79.7442011  91.8467648  48.7897851  79.9178888  91.2814071  48.0371704
  80.2370902  92.6468543  48.6077341  65.5618971  83.8582317  56.8561410
  65.0172439  84.6342125  56.9881684  66.4398320  84.2053122  56.6980531
  72.3506587  77.1893901  49.2342208  72.4722498  76.2610547  49.4333096
  72.0608630  77.2032587  48.3220524  75.2197778  74.8748811  52.3708928
  75.2419474  74.9388145  51.4160908  75.6365837  74.0353320  52.5649434
  85.5981402  84.6104071  50.4088151  86.0412548  83.8611396  50.0107274
  84.7207912  84.6014207  50.0261883  80.7317183  91.1634412  45.8894749
  81.4268088  91.7841105  46.1082064  81.0740333  90.3129764  46.1647127
  66.3484992  82.9852213  59.7491567  65.6066728  83.1334849  60.3356197
  66.0277737  83.2460479  58.8858316  82.6308606  88.6134118  47.4182080
  83.1559930  88.9521391  46.6931400  82.5430959  87.6781133  47.2345215
  74.2928655  92.5268192  59.5471957  74.6015782  92.2817338  60.4194656
  75.0904137  92.7314830  59.0590827  74.3149267  94.6806101  51.7777333
  73.8754257  94.1882480  52.4710190  75.0657384  94.1379069  51.5369409
  66.7941606  90.8717642  51.7801961  67.6199626  90.5721414  51.4000605
  66.4435658  90.1025265  52.2291750  71.7623139  90.2244110  53.8499635
  71.1403149  89.5614815  53.5501863  72.4328006  90.2505242  53.1673283
  64.9950211  88.7903969  52.7390895  64.1582119  88.3626143  52.5574896
  64.9673857  88.9836412  53.6761686  71.8347667  78.7025898  63.4432141
  71.8835822  79.5788021  63.0609911  72.3770181  78.1603291  62.8703784
  82.3202512  89.2467022  62.7233278  81.5298056  89.2291160  62.1837778
  82.0835867  89.7855315  63.4782315  82.4400388  86.0959488  60.0366007
  82.4898392  85.9309495  60.9781529  82.3314311  85.2286747  59.6463887
  71.3236646  88.7748034  47.3258096  71.4724767  89.4583498  46.6724768
  72.1303090  88.7553124  47.8407551  79.7304150  82.0790416  61.3525313
  80.6314013  81.9396881  61.0609311  79.8052124  82.2444871  62.2923491
  74.0646955  79.4557271  60.1978500  73.1950265  79.7490837  59.9261088
  74.3006436  80.0397716  60.9185763  83.9418584  88.5156430  60.2808028
  83.6503393  88.8786410  61.1171489  83.3290716  87.8023438  60.1021360
  85.1414267  86.0809309  52.8010598  85.9761158  86.5199113  52.9648159
  85.2773395  85.6047963  51.9818844  82.1905773  83.6389044  58.7488086
  82.6659894  83.8316690  57.9406938  81.2671338  83.6948230  58.5031470
  69.0789279  84.8013211  48.3319164  68.8335321  83.8975541  48.5299375
  69.2485194  84.8030362  47.3898642  76.7685989  75.6736888  57.7143920
  77.2867933  76.4097915  57.3890409  76.4141122  75.9800881  58.5490679
  68.3484927  80.5341569  45.8305326  67.6554172  80.6085924  45.1745362
  68.1036679  79.7701913  46.3526843  77.0198583  72.0937170  53.2344817
  77.3000337  71.4260359  53.8605243  77.8049190  72.2866266  52.7219481
  74.8232052  91.2696164  44.7969843  74.2506019  91.8886351  44.3440315
  75.3964845  91.8195526  45.3309765  80.8907442  80.5154804  56.9816392
  81.8424864  80.6152902  57.0028616  80.7210892  79.7233073  57.4914476
  78.9121821  77.6010387  57.1675793  78.3171753  77.8815400  56.4722281
  78.6271518  78.0904288  57.9392534  78.0429312  91.5533314  45.9278425
  78.9759985  91.4878876  46.1311301  77.9552524  92.3889581  45.4692958
  80.6717328  90.8699185  42.8882373  80.5930960  90.5359048  43.7818131
  81.4926995  91.3620953  42.8873845  83.3695519  83.7360924  56.0958691
  83.3371839  82.7976925  56.2818375  83.9796143  83.8144961  55.3624516
  75.2078850  82.6056977  42.1385895  76.1537955  82.4763185  42.2074314
  74.8293095  81.8671639  42.6155324  83.5190008  80.5271967  56.1416975
  83.0029056  79.7430424  55.9546903  84.4029956  80.1990684  56.3063494
  81.1800735  74.2712983  52.1012787  80.9825556  73.9628071  52.9856119
  81.7900440  74.9974622  52.2310717  89.1872069  84.7976931  55.2364728
  89.9175458  84.5362219  55.7972432  88.5779015  84.0605653  55.2766796
  87.2687366  82.9384793  55.8339179  86.5420530  82.8040758  55.2255671
  86.8534653  83.2461622  56.6395897  75.0917543  86.6574723  63.5986552
  76.0120552  86.8353322  63.7926599  75.0567126  85.7130768  63.4466252
  73.3921767  80.5306953  42.0740781  72.4853223  80.2340066  42.1503494
  73.6697748  80.2336771  41.2075067  64.3099708  81.8513317  52.5239827
  63.9902492  80.9978625  52.2314201  63.7633136  82.0661895  53.2797794
  68.0879615  84.5675758  56.2409334  68.3065625  85.4992865  56.2597367
  68.5005389  84.2083732  57.0264137  75.0083833  75.0743843  48.2285022
  74.1984561  74.7290928  48.6040268  75.6968250  74.7651387  48.8172634
  76.9374381  74.1521890  49.8509319  77.4905420  74.5717343  50.5099342
  77.1744468  73.2257638  49.8932275  72.9607481  80.1408963  65.6312083
  72.8604208  81.0903320  65.5624174  72.7429023  79.8127202  64.7588153
  72.1620552  77.3893889  42.2152760  73.0239716  77.7148787  42.4748577
  72.3470896  76.6025384  41.7025826  64.1787968  85.4716228  54.4932949
  63.4851439  85.0570181  53.9802903  64.9260959  85.5136765  53.8966368
  80.3153188  76.2622415  49.3587983  79.7351858  76.9207219  48.9766035
  80.0489121  75.4399760  48.9475400  78.7656755  75.6627473  51.5609303
  79.2656533  75.7744007  50.7523622  79.4092363  75.3588526  52.2010112
  72.8238751  83.5706102  64.4477144  72.3405832  84.3706462  64.6541033
  72.9099690  83.5814047  63.4944588  66.0924710  85.4034482  52.3698964
  66.0695398  85.5022169  51.4180847  66.4025347  86.2499633  52.6916130
  68.7512088  87.4610637  56.4845578  69.7055342  87.4294579  56.4175510
  68.5524612  87.0001261  57.2995804  69.3411470  86.0311753  59.0516376
  70.1604359  86.5255832  59.0751213  69.6148278  85.1143721  59.0233943
  79.0978067  78.4222505  48.4144331  78.2103922  78.7072156  48.1964526
  79.5132056  78.2616269  47.5671608  82.4492603  78.4469026  52.1298670
  83.2252993  78.9365479  52.4023287  81.7240737  78.8727081  52.5870540
  84.8865161  79.1596646  53.1872611  85.4809652  78.9192382  52.4765919
  84.9591745  78.4403776  53.8146147  67.1062317  93.0030256  53.5015776
  66.9716785  92.2430657  52.9353774  66.6894379  93.7271156  53.0344565
  78.2421280  88.1867180  42.5092351  78.9457130  88.3917183  43.1250007
  77.5183929  88.7543942  42.7741435  79.0719090  83.9377041  48.6294621
  79.0154292  84.3945593  47.7902254  79.6247433  83.1767726  48.4517464
  82.8823896  79.7266773  49.4544741  82.6260830  79.3263409  50.2852949
  82.2576764  80.4410567  49.3294880  87.1936234  82.4662846  51.9616032
  86.6335792  82.5356036  52.7347594  86.5879737  82.2903831  51.2415528
  70.2631443  93.8999574  53.7134219  70.1463827  94.8445006  53.6112909
  69.4423889  93.5973135  54.1020018  80.1507977  88.6249709  44.5590811
  80.9853581  88.1930908  44.3768286  79.9892320  88.4531723  45.4867706
  79.8053870  85.1281823  45.9247151  79.7502673  84.9626094  44.9835595
  79.1799925  85.8357855  46.0809340  64.5946385  80.3649887  59.7508573
  65.2405248  79.8548841  60.2395798  64.3863536  81.1018569  60.3251998
  77.1199777  87.4330734  65.2500713  77.9890936  87.6071387  64.8887348
  76.6406528  88.2525151  65.1276443  73.1149995  74.6289932  45.5032469
  73.1028665  75.5731771  45.6600740  74.0073417  74.4460077  45.2091930
  71.2885957  94.5527835  56.9290147  72.1913204  94.5851446  57.2456642
  71.0623327  93.6228286  56.9436483  73.0439559  93.3058822  53.5900226
  72.0935190  93.3060684  53.4764598  73.3472045  92.5591557  53.0736260
  76.9302114  71.2232708  49.7578406  76.1634510  70.6691195  49.9035088
  77.3412819  71.2954577  50.6192557  68.9343876  77.5117504  63.8483587
  69.7975337  77.1554309  64.0586912  68.3609286  77.1731399  64.5358991
  88.7792252  99.1419360  54.6545988  89.4170662  99.0226108  53.9509328
  88.6613095 100.0900204  54.7133940  85.5881959  99.0946788  54.5907513
  85.2500470  98.9787853  53.7028048  86.4571727  98.6937954  54.5708519
  81.4468774 100.9482265  50.5804404  80.8833640 100.8572202  49.8120691
  81.3321169 100.1282169  51.0606896  86.0701742 100.2481640  60.5493718
  86.0590383  99.8534438  59.6774222  86.2322381  99.5147713  61.1427490
  78.9933206 102.4433456  53.4188624  79.7854498 102.1024281  53.0034923
  79.2329857 102.5528431  54.3390777  80.9523960 101.7042370  46.2906003
  81.7254836 101.1571357  46.1518879  81.3049359 102.5686619  46.5020464
  82.7909003 103.0318752  59.4972902  82.4998869 103.9364383  59.3819568
  83.4265987 103.0735280  60.2116972  83.7165210 100.4095600  56.0874262
  84.3128782 100.1851623  55.3731225  83.7740181  99.6680346  56.6899710
  83.2890238  97.8635036  43.9224453  83.5415759  97.3416557  43.1607916
  82.3514797  97.7001181  44.0251136  88.3333521  96.8670814  51.7299196
  89.1196610  96.4490237  51.3789613  88.5972225  97.7716906  51.8980844
  88.5043598 102.3043664  46.4287853  87.8689431 102.3778291  47.1408757
  88.1741005 102.8937263  45.7506932  93.7341948  96.8046047  52.6332175
  94.4667120  96.2345264  52.8670004  92.9781304  96.4167648  53.0738680
  83.0086527  99.7663142  46.1248828  82.8922785  99.0908045  46.7929912
  83.1188787  99.2795516  45.3080981  85.3518068  99.2273289  49.8295517
  84.9876275  98.7003910  50.5408438  86.2085184  98.8371758  49.6562002
  91.2567368  90.5167621  57.0926783  90.9250693  91.3863032  56.8687998
  90.6612982  90.2003905  57.7720814  84.9923555  94.2563189  44.8256865
  85.1597957  95.1243425  45.1927337  84.8020724  94.4190470  43.9018155
  87.7498888 102.7180167  56.4922696  87.4499611 103.6205206  56.3838503
  87.4049947 102.4512351  57.3443849  81.2011369  99.1693964  52.5259400
  80.2761866  99.0370178  52.7337092  81.4495783  99.9488184  53.0229343
  91.1496032  95.2362708  54.1720133  90.2412909  95.1678116  53.8778894
  91.0983628  95.7134653  55.0001959  84.9712776  96.7120846  45.8103532
  84.8512401  97.1577897  46.6489013  84.2765364  97.0606164  45.2517070
  78.5620180  98.8127238  53.3603189  78.6912562  99.0661717  54.2742601
  77.8817632  99.4054946  53.0407844  85.2236898  96.6552353  62.1155030
  84.4470232  97.2146273  62.1057895  85.8627461  97.1409136  62.6369901
  93.0157678  93.4379146  55.9498007  92.3732058  93.7311679  55.3037802
  92.5112607  93.3232066  56.7551204  90.6697842  97.1842319  46.6383866
  91.5815698  97.4169706  46.4631564  90.1607489  97.7679363  46.0758945
  83.4783270  99.4637807  61.6772997  84.2197954 100.0022851  61.4007821
  82.7720255 100.0904095  61.8344549  88.9538609 101.6066947  60.2745159
  89.3621966 101.1649358  59.5299791  88.2315871 101.0319575  60.5279352
  85.3069680  96.5439554  57.6478716  86.1530875  96.9678967  57.7913365
  85.2468317  95.8873178  58.3417279  89.2767424 102.1668138  54.0297448
  88.6476287 102.3313852  53.3273516  88.8893086 102.5809747  54.8008412
  88.4569125  94.2043922  59.3059890  88.2130057  94.9585983  58.7694165
  88.7329055  94.5829270  60.1407137  90.4107588 100.7482535  57.9837155
  90.6224483 101.3914294  57.3071536  90.3637336  99.9144851  57.5159085
  88.0133817  93.3600355  54.8873727  87.1518296  93.6581609  55.1790465
  88.0396251  93.5770754  53.9554760  84.8295386 101.9042546  51.2947533
  85.2933732 102.1830249  50.5052155  84.5652184 101.0025990  51.1120624
  81.7219467 101.4514027  54.2327296  82.2920824 101.8801296  53.5944781
  82.3127579 101.1696612  54.9311482  83.7664272  98.0265698  48.1037098
  84.4688315  98.4786742  48.5711024  83.4344901  97.3849517  48.7316991
  82.2144634  96.6177455  62.4788307  81.5843294  97.2993736  62.7123704
  82.1080721  96.5060536  61.5341446  77.5089606  96.2849251  53.4054232
  76.7188660  96.5406779  52.9294342  78.0000853  97.0997589  53.5106272
  79.4604351  96.6493830  50.3637708  78.6635515  96.7612524  50.8821204
  79.2329944  96.9880482  49.4978599  85.2910019 103.1738533  58.3120223
  85.3554452 103.6358941  59.1478395  84.5820943 102.5435898  58.4402533
  75.7927309  96.5379741  55.8369222  76.0435347  97.4226751  56.1026798
  76.3286857  96.3584343  55.0644314  81.4925376  90.9198221  64.8413558
  81.0992322  90.3664419  65.5161203  82.3091517  91.2308799  65.2320076
  78.4587434 102.3582079  48.7527128  78.9711955 103.1525329  48.9032693
  79.1110147 101.6608369  48.6860730  80.2682319 105.4747835  50.8349882
  80.4448947 106.3965800  50.6470865  81.0639152 105.1606254  51.2644261
  84.4093337  92.3356100  62.4333815  85.1503051  92.9363253  62.3538278
  84.6411260  91.5933738  61.8751858  79.5534675  97.5212467  60.7112045
  79.4388190  96.6197724  61.0119144  78.6979193  97.7676164  60.3596861
  81.3913634 106.9926009  56.8360224  81.9421059 106.8643072  56.0637218
  80.5525110 107.2920898  56.4855117  85.1880805 103.2577137  61.1804455
  85.7209142 102.4965425  60.9503763  84.6594886 102.9650789  61.9228609
  88.3550500  88.3637203  56.7098097  88.0114770  89.2538844  56.6337207
  88.7229463  88.1738860  55.8467682  76.4236351 100.6870733  49.5286699
  77.2611573 101.0967741  49.3120407  76.6014619  99.7470175  49.4986893
  88.3200783  98.3545814  45.2170532  87.8047406  99.1250418  45.4558919
  88.0478091  97.6810950  45.8403593  85.9047894  93.1995515  50.2755770
  85.0489490  92.8102365  50.0961409  86.3174846  93.2787475  49.4155556
  87.4347041  90.7341858  54.6747330  86.9311836  90.6971993  53.8615135
  87.7277648  91.6434601  54.7343987  83.6789927  90.8180588  53.6813512
  84.5442923  90.6223396  53.3219401  83.7467435  90.5890939  54.6082868
  88.1087086  96.2272906  47.0430313  87.8037222  96.5419055  47.8940456
  89.0617528  96.3054326  47.0857646  86.5533518 102.3863129  48.6923267
  86.0254880 101.6515889  48.3796504  86.0521021 103.1637806  48.4463235
  81.2852246  93.0482795  51.0529879  81.8595997  92.8257977  50.3203071
  81.8723228  93.1171490  51.8058480  90.3431823  98.9356522  51.8594255
  90.8563705  99.5686514  52.3615965  90.9933047  98.3357718  51.4937615
  81.6121833  95.0787256  45.0725764  80.7759145  95.4161943  45.3935039
  81.4726602  94.9436236  44.1352901  83.5874913  89.9224044  49.7804948
  82.9339326  89.6073062  49.1561563  83.5455387  89.2999785  50.5064771
  84.6986118 100.2043339  41.6958240  83.7913180  99.9732593  41.8949389
  85.1957150  99.4080959  41.8832222  86.8212654  96.4105978  54.1052596
  85.9035215  96.6320925  53.9474284  87.2372797  96.4852288  53.2464303
  87.6047701  97.8097394  49.2355276  88.3519520  98.3218791  48.9262398
  87.8739291  97.4881446  50.0959669  85.8774352 100.3055934  46.2182230
  84.9685571 100.0214967  46.3154700  85.9069435 100.7255013  45.3585537
  90.0526539  94.8454510  51.2174065  89.3149295  94.3331896  51.5484308
  90.3053312  94.4054891  50.4057342  90.1538166  87.6230762  51.8115834
  90.4597043  86.7628125  51.5241749  90.8790771  88.2148382  51.6114828
  76.4462522  98.0261448  50.1997432  76.2486922  97.4330809  49.4748499
  75.8909186  97.7213659  50.9173371  84.4259246  97.9184555  52.3192025
  84.4807855  96.9658391  52.2434502  83.6150448  98.0743994  52.8033324
  85.5750439 101.8464678  43.5570309  85.1369869 101.1300537  43.0975946
  86.3160880 102.0740793  42.9955400  82.3651606  96.5361615  50.0782404
  81.5519471  96.8355785  50.4847596  82.8610600  96.1417303  50.7956887
  87.9625817  97.0003439  58.9097298  88.3175205  97.2274912  59.7691764
  88.6097948  97.3321816  58.2874554  81.8565680  94.1079970  55.6943639
  82.4965060  93.9668729  54.9966603  81.0243211  93.8214484  55.3182241
  82.6325984 103.4082401  51.8078632  83.4266583 102.9132721  51.6061207
  81.9217677 102.8800264  51.4446337  78.9408748  97.5525482  47.8838384
  78.0106336  97.4909938  48.1008347  79.0366220  97.0301435  47.0875026
  78.8594297  94.0780295  50.4716626  79.1201114  94.9925628  50.3625787
  79.6811469  93.6104738  50.6213239  80.3319222  95.4918052  57.6415451
  81.0042275  95.2835414  56.9928100  79.5049009  95.2940138  57.2020683
  86.2344794  92.1179993  59.6581112  85.5872709  92.8169943  59.5645588
  87.0045809  92.5516137  60.0257360  86.4108928  99.9560758  57.7177931
  87.3400988 100.1071918  57.5446899  85.9899958 100.0444779  56.8626578
  85.2097260 103.9811423  55.4876469  85.0708346 103.6130207  56.3602407
  84.4211856 104.4959062  55.3160427  86.7602475 103.3593025  52.8765307
  86.4252308 103.3193795  53.7722957  86.2606421 102.6937741  52.4035717
  80.7346719  98.7660655  58.4017888  80.5966517  98.0340894  59.0029427
  81.6451643  98.6769555  58.1202076  89.6961667 100.7049060  43.1502366
  89.0790838  99.9795888  43.0535419  89.2278155 101.4658420  42.8069441
  83.3629020  98.4780615  57.8901567  84.0728639  97.8373807  57.8488186
  83.3198328  98.7293509  58.8127748  82.0757954  95.4645833  59.7097207
  81.5395311  95.0136571  60.3618803  81.4874662  95.5991741  58.9667671
  81.4860213  94.9234484  42.2723671  80.6089679  94.8023285  41.9085917
  81.9617966  94.1320562  42.0202559  73.0062353  99.7111644  52.3665178
  73.6933393  99.3973374  51.7786193  72.8510482 100.6153008  52.0932429
  77.8097075  94.6001840  56.7950201  77.7255264  93.9927510  56.0600611
  76.9879782  95.0910859  56.7959698  87.9820789  93.0855404  52.1620396
  88.4789489  92.3325366  51.8421467  87.2107771  93.1219720  51.5963606
  89.0650570 101.8427091  49.7358820  88.1306849 101.9628553  49.5663524
  89.2427238 100.9399558  49.4718830  84.5655758  95.2272787  51.8892081
  84.1953545  94.6743827  52.5772987  85.0614850  94.6230920  51.3367081
  82.3944956 105.6870282  58.9847099  83.0954416 106.3206765  59.1376493
  81.9240071 106.0285013  58.2242738  90.4239784  90.0524997  54.3099755
  89.5102864  90.2829224  54.4781962  90.8532885  90.1363441  55.1613788
  90.1946242  98.2414889  56.8099649  89.5417693  98.4890797  56.1552102
  90.5726622  97.4279027  56.4762127  86.2433815  98.9834700  63.2965686
  85.5674452  98.8828830  63.9668062  87.0661449  98.8273914  63.7601684
  77.9912674 105.2206637  55.9178202  78.5766111 104.4750325  56.0506106
  77.7937513 105.5310594  56.8014866  80.8451330 108.2557884  50.9340644
  80.1761705 108.7404012  50.4504684  80.7064199 108.5027105  51.8484023
  72.5830329  97.7912237  54.6382645  72.6214429  97.2575828  55.4319763
  72.0770622  97.2647443  54.0193622  79.9621091  92.6376778  58.1345187
  80.0262418  93.4991608  57.7222585  79.8988212  92.0250779  57.4017546
  79.4373364  94.7099910  61.7818221  80.0645403  94.3276987  62.3955746
  78.5801283  94.4914112  62.1473914  76.2138907  96.5176339  47.7136576
  76.5092348  95.6087018  47.6603630  75.3126943  96.4964079  47.3917579
  79.7433154  94.5932336  53.6964125  79.0219740  95.2068303  53.5571598
  80.5326410  95.1290101  53.6180771  82.5459467  91.9286762  59.9704777
  83.0693869  92.1749059  60.7331086  82.3271801  92.7606797  59.5507914
  77.9426748  94.1990437  47.8375901  77.6139455  93.3187816  47.6551007
  78.2966119  94.1438106  48.7252291  81.0568572  94.4863407  48.2051379
  81.3964644  95.0149328  47.4829987  81.5040692  94.8243813  48.9809946
  83.7512012  92.8700457  57.6554447  83.4108833  92.0708270  58.0575127
  83.0451019  93.1702168  57.0831280  84.4028484  89.9549770  56.1081770
  85.2254553  89.4810248  55.9860660  84.6466548  90.7340254  56.6080456
  83.0436719  92.9838028  46.4044672  83.7645081  93.3619281  45.9008389
  82.4202023  93.7026905  46.5079650  87.1867842  93.6883177  47.3403004
  87.4031456  94.5707815  47.0391832  86.7061909  93.2969391  46.6108646
  81.9267063  96.6468890  53.9173749  81.7811644  96.9609193  54.8098030
  81.4492267  97.2653791  53.3644647  83.7863446  93.6371438  53.9654638
  83.7725015  92.7412532  53.6286936  84.5035874  93.6442102  54.5992924
  85.6389577  94.0708779  56.0107766  85.3807354  94.9925849  56.0092096
  85.1074617  93.6739213  56.7008230  76.4012725  99.1874235  56.8561410
  75.8566193  99.9634043  56.9881684  77.2792075  99.5345039  56.6980531
  83.1900342  92.5185819  49.2342208  83.3116253  91.5902465  49.4333096
  82.9002384  92.5324505  48.3220524  86.0591532  90.2040729  52.3708928
  86.0813229  90.2680062  51.4160908  86.4759591  89.3645238  52.5649434
  77.1878747  98.3144131  59.7491567  76.4460483  98.4626766  60.3356197
  76.8671491  98.5752397  58.8858316  77.6335361 106.2009560  51.7801961
  78.4593381 105.9013332  51.4000605  77.2829413 105.4317182  52.2291750
  82.6016894 105.5536028  53.8499635  81.9796903 104.8906733  53.5501863
  83.2721761 105.5797160  53.1673283  75.8343966 104.1195886  52.7390895
  74.9975874 103.6918061  52.5574896  75.8067611 104.3128330  53.6761686
  82.6741421  94.0317816  63.4432141  82.7229577  94.9079939  63.0609911
  83.2163935  93.4895209  62.8703784  82.1630401 104.1039951  47.3258096
  82.3118521 104.7875416  46.6724768  82.9696844 104.0845041  47.8407551
  90.5697904  97.4082334  61.3525313  91.4707767  97.2688799  61.0609311
  90.6445879  97.5736789  62.2923491  84.9040710  94.7849188  60.1978500
  84.0344019  95.0782755  59.9261088  85.1400190  95.3689633  60.9185763
  93.0299527  98.9680962  58.7488086  93.5053649  99.1608608  57.9406938
  92.1065092  99.0240148  58.5031470  79.9183034 100.1305129  48.3319164
  79.6729076  99.2267459  48.5299375  80.0878948 100.1322279  47.3898642
  87.6079744  91.0028805  57.7143920  88.1261687  91.7389832  57.3890409
  87.2534876  91.3092799  58.5490679  79.1878681  95.8633487  45.8305326
  78.4947926  95.9377842  45.1745362  78.9430433  95.0993830  46.3526843
  87.8592338  87.4229088  53.2344817  88.1394091  86.7552277  53.8605243
  88.6442945  87.6158184  52.7219481  91.7301196  95.8446722  56.9816392
  92.6818619  95.9444820  57.0028616  91.5604646  95.0524990  57.4914476
  89.7515576  92.9302305  57.1675793  89.1565508  93.2107318  56.4722281
  89.4665272  93.4196206  57.9392534  86.0472605  97.9348895  42.1385895
  86.9931709  97.8055103  42.2074314  85.6686850  97.1963556  42.6155324
  94.3583762  95.8563885  56.1416975  93.8422811  95.0722342  55.9546903
  95.2423711  95.5282602  56.3063494  92.0194489  89.6004901  52.1012787
  91.8219310  89.2919989  52.9856119  92.6294195  90.3266540  52.2310717
  85.9311297 101.9866641  63.5986552  86.8514307 102.1645240  63.7926599
  85.8960880 101.0422686  63.4466252  84.2315522  95.8598871  42.0740781
  83.3246977  95.5631984  42.1503494  84.5091503  95.5628689  41.2075067
  75.1493462  97.1805234  52.5239827  74.8296247  96.3270543  52.2314201
  74.6026890  97.3953813  53.2797794  78.9273370  99.8967675  56.2409334
  79.1459380 100.8284783  56.2597367  79.3399144  99.5375650  57.0264137
  85.8477588  90.4035761  48.2285022  85.0378316  90.0582846  48.6040268
  86.5362005  90.0943304  48.8172634  87.7768136  89.4813807  49.8509319
  88.3299174  89.9009261  50.5099342  88.0138222  88.5549556  49.8932275
  83.8001235  95.4700881  65.6312083  83.6997962  96.4195238  65.5624174
  83.5822777  95.1419120  64.7588153  83.0014307  92.7185806  42.2152760
  83.8633470  93.0440704  42.4748577  83.1864651  91.9317302  41.7025826
  75.0181722 100.8008146  54.4932949  74.3245194 100.3862099  53.9802903
  75.7654713 100.8428682  53.8966368  91.1546943  91.5914333  49.3587983
  90.5745612  92.2499137  48.9766035  90.8882876  90.7691677  48.9475400
  89.6050509  90.9919390  51.5609303  90.1050288  91.1035925  50.7523622
  90.2486117  90.6880443  52.2010112  83.6632505  98.8998020  64.4477144
  83.1799587  99.6998380  64.6541033  83.7493444  98.9105965  63.4944588
  76.9318465 100.7326400  52.3698964  76.9089153 100.8314087  51.4180847
  77.2419101 101.5791550  52.6916130  79.5905843 102.7902555  56.4845578
  80.5449096 102.7586497  56.4175510  79.3918366 102.3293178  57.2995804
  80.1805225 101.3603671  59.0516376  80.9998114 101.8547749  59.0751213
  80.4542032 100.4435639  59.0233943  89.9371821  93.7514423  48.4144331
  89.0497676  94.0364074  48.1964526  90.3525810  93.5908186  47.5671608
  93.2886357  93.7760944  52.1298670  94.0646747  94.2657396  52.4023287
  92.5634491  94.2018998  52.5870540  95.7258916  94.4888563  53.1872611
  96.3203407  94.2484299  52.4765919  95.7985499  93.7695694  53.8146147
  77.9456071 108.3322174  53.5015776  77.8110539 107.5722575  52.9353774
  77.5288134 109.0563074  53.0344565  89.9112845  99.2668959  48.6294621
  89.8548046  99.7237510  47.7902254  90.4641187  98.5059644  48.4517464
  93.7217651  95.0558691  49.4544741  93.4654585  94.6555326  50.2852949
  93.0970519  95.7702485  49.3294880  90.6447624 100.4573740  45.9247151
  90.5896428 100.2918012  44.9835595  90.0193679 101.1649773  46.0809340
  75.4340139  95.6941805  59.7508573  76.0799003  95.1840759  60.2395798
  75.2257290  96.4310486  60.3251998  83.9543750  89.9581849  45.5032469
  83.9422419  90.9023689  45.6600740  84.8467171  89.7751995  45.2091930
  87.7695869  86.5524626  49.7578406  87.0028265  85.9983113  49.9035088
  88.1806574  86.6246495  50.6192557  79.7737630  92.8409422  63.8483587
  80.6369092  92.4846227  64.0586912  79.2003041  92.5023316  64.5358991
  34.5823481  -0.4978105  41.3791295  35.2201891  -0.6171358  40.6754635
  34.4644324   0.4502738  41.4379247  31.3913188  -0.5450677  41.3152819
  31.0531699  -0.6609613  40.4273354  32.2602956  -0.9459512  41.2953825
  27.2500003   1.3084799  37.3049710  26.6864868   1.2174736  36.5365998
  27.1352398   0.4884704  37.7852203  31.8732971   0.6084174  47.2739025
  31.8621611   0.2136973  46.4019528  32.0353610  -0.1249753  47.8672796
  24.7964435   2.8035991  40.1433931  25.5885727   2.4626815  39.7280230
  25.0361085   2.9130966  41.0636084  32.8299562   4.9755767  32.6164175
  32.1787542   5.5609847  32.2298189  33.6243925   5.5061962  32.6759213
  26.7555189   2.0644904  33.0151309  27.5286065   1.5173891  32.8764185
  27.1080588   2.9289153  33.2265771  28.5940232   3.3921286  46.2218209
  28.3030098   4.2966917  46.1064875  29.2297216   3.4337814  46.9362278
  29.5196439   0.7698135  42.8119568  30.1160011   0.5454157  42.0976531
  29.5771410   0.0282880  43.4145016  34.1364750  -2.7726652  38.4544503
  34.9227839  -3.1907228  38.1034920  34.4003454  -1.8680559  38.6226151
  34.3074827   2.6646199  33.1533159  33.6720660   2.7380825  33.8654064
  33.9772234   3.2539798  32.4752239  39.5373177  -2.8351418  39.3577481
  40.2698349  -3.4052202  39.5915311  38.7812533  -3.2229818  39.7983987
  28.8117756   0.1265676  32.8494134  28.6954014  -0.5489421  33.5175219
  28.9220016  -0.3601950  32.0326287  31.1549297  -0.4124177  36.5540824
  30.7907504  -0.9393556  37.2653745  32.0116413  -0.8025708  36.3807309
  33.5530117   3.0782702  43.2168002  33.2530840   3.9807740  43.1083810
  33.2081176   2.8114885  44.0689155  27.0042598  -0.4703501  39.2504707
  26.0793095  -0.6027287  39.4582399  27.2527011   0.3090718  39.7474649
  36.9527261  -4.4034758  40.8965440  36.0444138  -4.4719350  40.6024201
  36.9014856  -3.9262813  41.7247265  30.7744004  -2.9276620  32.5348839
  30.6543630  -2.4819569  33.3734319  30.0796593  -2.5791302  31.9762377
  24.3651409  -0.8270228  40.0848496  24.4943790  -0.5735749  40.9987908
  23.6848861  -0.2342520  39.7653151  28.5350897   9.8427022  36.1838970
  28.4574926  10.7934847  36.2627451  27.9312540   9.4972895  36.8413896
  31.0268126  -2.9845113  48.8400337  30.2501460  -2.4251192  48.8303202
  31.6658689  -2.4988330  49.3615207  38.8188907  -6.2018320  42.6743314
  38.1763287  -5.9085787  42.0283108  38.3143835  -6.3165399  43.4796510
  36.4729071  -2.4555147  33.3629173  37.3846927  -2.2227760  33.1876871
  35.9638718  -1.8718102  32.8004252  29.2814499  -0.1759659  48.4018304
  30.0229183   0.3625385  48.1253128  28.5751484   0.4506630  48.5589856
  34.7569838   1.9669481  46.9990466  35.1653194   1.5251892  46.2545098
  34.0347100   1.3922109  47.2524658  31.1100908  -3.0957912  44.3724023
  31.9562104  -2.6718498  44.5158672  31.0499546  -3.7524288  45.0662586
  35.0798653   2.5270672  40.7542754  34.4507515   2.6916386  40.0518822
  34.6924315   2.9412281  41.5253718  38.9587885   3.4625110  38.1087118
  38.2738923   3.8424011  37.5584152  39.0431734   4.0720436  38.8419066
  34.2600354  -5.4353544  46.0305196  34.0161286  -4.6811483  45.4939472
  34.5360284  -5.0568196  46.8652443  36.2138816   1.1085069  44.7082462
  36.4255712   1.7516829  44.0316843  36.1668565   0.2747385  44.2404392
  33.8165045  -6.2797111  41.6119034  32.9549524  -5.9815857  41.9035771
  33.8427480  -6.0626712  40.6800067  30.6326615   2.2645080  38.0192840
  31.0964960   2.5432783  37.2297462  30.3683413   1.3628525  37.8365930
  27.5250696   1.8116562  40.9572603  28.0952053   2.2403830  40.3190087
  28.1158808   1.5299146  41.6556788  29.5695501  -1.6131768  34.8282405
  30.2719544  -1.1610724  35.2956331  29.2376129  -2.2547949  35.4562298
  28.0175862  -3.0220011  49.2033614  27.3874523  -2.3403730  49.4369011
  27.9111950  -3.1336929  48.2586752  37.3284644   3.9857024  42.8804819
  38.1502088   3.5837211  42.5987501  37.3247047   3.8825258  43.8320935
  31.0941248   3.5341068  45.0365530  31.1585680   3.9961475  45.8723701
  30.3852172   2.9038432  45.1647839  45.4190637   0.3295773  39.2289791
  44.6654346  -0.2396829  39.0733795  45.5538179   0.2958437  40.1760425
  30.8089265   5.2009175  34.9044510  30.6734940   6.0460711  35.3329358
  31.3499078   5.4028453  34.1410444  24.2618663   2.7184613  35.4772435
  24.7743183   3.5127863  35.6278000  24.9141376   2.0210903  35.4106036
  26.0713548   5.8350369  37.5595188  26.2480176   6.7568334  37.3716172
  26.8670381   5.5208789  37.9889568  32.4357742   5.8232742  49.0344852
  31.9921596   5.0369120  48.7165756  33.0974955   6.0111892  48.3688743
  27.1944863   7.3528543  43.5605530  27.7452288   7.2245606  42.7882524
  26.3556339   7.6523432  43.2100423  34.5338980   6.1035541  47.0626253
  34.5157455   6.9244422  46.5706522  35.4558900   5.9789617  47.2876394
  30.9912034   3.6179671  47.9049762  31.5240371   2.8567959  47.6749070
  30.4626115   3.3253323  48.6473916  34.1232012  -1.2851652  31.9415838
  33.6078635  -0.5147047  32.1804226  33.8509320  -1.9586516  32.5648900
  39.0966286   1.4680703  33.8769012  38.3195729   1.1291862  33.4324174
  39.7757767   1.4733326  33.2023977  33.9118315  -3.4124560  33.7675620
  33.6068451  -3.0978411  34.6185763  34.8648757  -3.3343140  33.8102953
  32.3564747   2.7465663  35.4168574  31.8286108   2.0118423  35.1041811
  31.8552250   3.5240340  35.1708542  37.3357593   0.9414684  40.5335620
  36.6781267   1.6313945  40.6215749  38.1397992   1.3311116  40.8769606
  36.1463052  -0.7040943  38.5839562  36.6594933  -0.0710952  39.0861271
  36.7964275  -1.3039748  38.2182922  33.4085426   9.2743381  31.3400233
  32.7347125   9.5775078  31.9485191  33.7951248  10.0772461  30.9905690
  32.6243882  -3.2291488  40.8297902  31.7066444  -3.0076541  40.6719590
  33.0404026  -3.1545177  39.9709610  33.4078930  -1.8300072  35.9600582
  34.1550749  -1.3178675  35.6507705  33.6770520  -2.1516019  36.8204976
  31.6805580   0.6658469  32.9427537  30.7716800   0.3817501  33.0400007
  31.7100664   1.0857547  32.0830844  36.9124848   4.2765058  36.7118704
  36.4587175   3.4355968  36.7683895  36.2818815   4.9126456  37.0493484
  35.8557767  -4.7942956  37.9419372  35.1180524  -5.3065570  38.2729614
  36.1084541  -5.2342574  37.1302649  35.3557787   6.1141555  37.6468522
  35.6480761   6.6746612  36.9280888  35.8656408   6.4070116  38.4021682
  30.2290474  -1.7212911  39.0437332  30.2839084  -2.6739074  38.9679809
  29.4181676  -1.5653472  39.5278631  31.3781668   2.2067212  30.2815615
  30.9401098   1.4903071  29.8221253  32.1192109   2.4343327  29.7200707
  28.1682834  -3.1035851  36.8027711  27.3550700  -2.8041681  37.2092903
  28.6641829  -3.4980162  37.5202193  30.3191412   6.8921906  38.7361976
  30.2767591   7.1182752  37.8070508  31.2354111   6.6585280  38.8847777
  33.7657046  -2.6394027  45.6342605  34.1206434  -2.4122554  46.4937071
  34.4129177  -2.3075650  45.0119860  39.4954783   0.4824409  36.3391934
  39.3572682   0.6726005  35.4113123  39.1391002   1.2443792  36.7959985
  39.5224163   2.5500936  41.3503205  39.9560669   2.4576225  42.1986259
  40.2355743   2.5258437  40.7123221  28.4357213   3.7684935  38.5323938
  29.2297812   3.2735255  38.3306513  27.7248905   3.2402798  38.1691644
  33.2552058   6.1503030  42.8836306  33.3089080   6.7193967  43.6514022
  32.3866839   6.3204915  42.5190343  40.3839712   2.5924637  43.8836091
  40.5775602   3.4970447  44.1295366  40.2840330   2.1332056  44.7174676
  35.4454821   2.7431380  49.4576971  35.2940327   2.5141931  48.5407055
  35.4359500   3.7001981  49.4708316  32.2140157   0.3163292  44.4423238
  33.1432217   0.4674452  44.2692205  31.7931187   0.4047313  43.5871884
  31.0128489   4.3413957  42.2121775  30.8739575   3.9732741  43.0847714
  30.2243085   4.8561596  42.0405733  31.6076641   9.4423053  33.5547312
  31.7828397   8.9711096  34.3692935  30.9209429  10.0688819  33.7828573
  32.5633704   3.7195559  39.6010613  32.2283537   3.6796329  40.4968263
  32.0637650   3.0540275  39.1281023  26.5377948  -0.8736810  45.1263194
  26.3997746  -1.6056572  45.7274733  27.4482872  -0.9627910  44.8447382
  35.4992896   1.0651594  29.8747673  34.8822066   0.3398422  29.7780726
  35.0309384   1.8260954  29.5314747  29.1660249  -1.1616851  44.6146874
  29.8759867  -1.8023659  44.5733492  29.1229557  -0.9103956  45.5373055
  37.1547027   5.7750502  47.5353453  37.0959574   5.0909722  46.8684036
  37.5566546   6.5169492  47.0834079  26.1737726  12.5912416  40.3287172
  26.4134325  13.2230940  41.0066191  25.3306923  12.2400456  40.6152531
  37.1564435   3.7390086  45.7667433  36.2691214   3.4016008  45.8893832
  37.7262986   3.0073117  46.0036198  30.6865588   8.3991538  42.7328676
  30.6135760   9.2046510  43.2447981  30.2442981   8.5983504  41.9076698
  30.4755368   7.6363309  36.2431498  29.6922890   8.1784989  36.3369722
  31.1748113   8.1537288  36.6425739  33.7852018  -6.5542062  38.8865703
  34.2820717  -7.3072100  38.5666773  33.0138999  -6.5177745  38.3208912
  41.6381775  -0.8501697  40.5283995  41.6271652   0.0323019  40.1577928
  40.7699155  -1.2030146  40.3338532  33.1464272   8.2978373  44.8886835
  33.8592244   8.9325837  44.8162736  32.6554300   8.3942239  44.0726837
  34.8681799   2.2029625  36.4604126  33.9338077   2.3231088  36.2908831
  35.0458467   1.3002092  36.1964136  38.2554350  -1.9553056  36.9954161
  38.7214802  -1.1225064  36.9214463  38.7061850  -2.4208074  37.6999419
  28.1976185   6.0472816  45.7092406  28.8985645   6.6809299  45.8621800
  27.7271300   6.3887548  44.9488045  36.3230581   4.3890766  33.9940313
  36.5990425   4.2747360  34.9034187  35.4535080   3.9908251  33.9552486
  35.9977471  -1.3982577  43.5344956  35.3448921  -1.1506669  42.8797409
  36.3757851  -2.2118438  43.2007433  32.9584645   8.6377117  37.6373126
  33.1407040   7.8198773  38.1000879  33.7817631   8.8544809  37.1998016
  33.2926811   7.5645302  34.8988175  33.8214577   7.0537756  34.2858337
  33.5555030   7.2487832  35.7633708  32.0465044  -0.6562766  50.0210993
  31.3705681  -0.7568636  50.6913368  32.8692678  -0.8123552  50.4846990
  23.7943903   5.5809171  42.6423508  24.3797340   4.8352859  42.7751413
  23.5968742   5.8913128  43.5260172  26.6482558   8.6160418  37.6585951
  25.9792934   9.1006546  37.1749991  26.5095428   8.8629639  38.5729329
  30.7887827  10.6504162  44.2568609  31.3406135  10.8135783  45.0217694
  31.1294021  11.2408600  43.5848634  35.6398701   5.4765419  50.1117263
  36.1838605   6.0895378  49.6172218  35.0585546   6.0344998  50.6284277
  33.9256214   8.5986137  41.2432291  33.8007354   7.7975877  40.7343237
  34.5835305   9.0932331  40.7546261  35.9891123   6.3995158  42.8711841
  35.0421458   6.2800509  42.7990168  36.3373896   5.5117656  42.9538103
  32.9937556   6.1947874  39.0716194  32.8462518   5.2664581  39.2523764
  33.8191050   6.2167964  38.5873269  36.5971678   7.0176432  40.1581066
  37.5218225   6.8119294  40.0205517  36.4286981   6.7692834  41.0670408
  32.9899070  -5.9514289  34.0648311  33.2062685  -5.0689651  33.7637139
  32.5093137  -6.3428075  33.3353953  27.7298292  -2.9928575  40.6419055
  27.5842872  -2.6788272  41.5343337  27.2523495  -2.3743675  40.0889954
  36.3866994   7.5362100  35.5143158  36.5603872   6.9708522  34.7617010
  36.8795885   8.3362995  35.3322648  42.2406385   0.2998523  37.1333457
  42.6837531  -0.4494152  36.7352581  41.3632896   0.2908659  36.7507189
  37.3742167   6.8528864  32.6140056  38.0693071   7.4735557  32.8327371
  37.7165317   6.0024216  32.8892434  39.2733590   4.3028570  34.1427387
  39.7984914   4.6415843  33.4176707  39.1855942   3.3675585  33.9590521
  30.9353638   8.2162644  46.2717263  31.2440765   7.9711790  47.1439963
  31.7329120   8.4209282  45.7836134  30.9574250  10.3700553  38.5022640
  30.5179241   9.8776932  39.1955497  31.7082367   9.8273521  38.2614715
  23.4366589   6.5612094  38.5047268  24.2624609   6.2615866  38.1245912
  23.0860641   5.7919716  38.9537057  28.4048123   5.9138562  40.5744942
  27.7828132   5.2509267  40.2747170  29.0752989   5.9399694  39.8918589
  21.6375194   4.4798420  39.4636202  20.8007103   4.0520595  39.2820203
  21.6098840   4.6730864  40.4006993  38.9627496   4.9361474  49.4478585
  38.1723039   4.9185612  48.9083084  38.7260850   5.4749767  50.2027621
  39.0825371   1.7853940  46.7611313  39.1323376   1.6203947  47.7026836
  38.9739294   0.9181199  46.3709194  27.9661629   4.4642486  34.0503402
  28.1149750   5.1477950  33.3970075  28.7728073   4.4447576  34.5652858
  36.3729133  -2.2315132  48.0770620  37.2738996  -2.3708667  47.7854618
  36.4477108  -2.0660677  49.0168797  30.7071939  -4.8548277  46.9223806
  29.8375248  -4.5614711  46.6506395  30.9431419  -4.2707832  47.6431070
  40.5843568   4.2050881  47.0053335  40.2928376   4.5680862  47.8416796
  39.9715699   3.4917890  46.8266667  41.7839250   1.7703761  39.5255905
  42.6186141   2.2093565  39.6893465  41.9198379   1.2942414  38.7064151
  38.8330756  -0.6716504  45.4733393  39.3084877  -0.4788858  44.6652244
  37.9096321  -0.6157318  45.2276776  25.7214262   0.4907663  35.0564471
  25.4760304  -0.4130007  35.2544681  25.8910177   0.4924814  34.1143949
  31.4657035   6.9590616  31.5215150  30.8931002   7.5780803  31.0685621
  32.0389829   7.5089978  32.0555072  37.5332425  -3.7950744  43.7061698
  38.4849848  -3.6952646  43.7273922  37.3635875  -4.5872475  44.2159783
  35.5546804  -6.7095161  43.8921099  34.9596736  -6.4290148  43.1967588
  35.2696501  -6.2201260  44.6637840  34.6854295   7.2427766  32.6523732
  35.6184968   7.1773328  32.8556607  34.5977508   8.0784033  32.1938265
  37.3142311   6.5593637  29.6127679  37.2355943   6.2253500  30.5063437
  38.1351978   7.0515404  29.6119152  40.0120503  -0.5744624  42.8203998
  39.9796823  -1.5128623  43.0063682  40.6221126  -0.4960587  42.0869823
  40.1614991  -3.7833581  42.8662281  39.6454040  -4.5675124  42.6792210
  41.0454940  -4.1114864  43.0308801  45.8297053   0.4871383  41.9610035
  46.5600441   0.2256671  42.5217738  45.2203998  -0.2499895  42.0012103
  43.9112350  -1.3720755  42.5584486  43.1845513  -1.5064790  41.9500978
  43.4959637  -1.0643926  43.3641204  31.7342526   2.3469175  50.3231859
  32.6545536   2.5247774  50.5171906  31.6992109   1.4025220  50.1711558
  24.7304599   0.2570210  42.9654640  24.9490608   1.1887317  42.9842674
  25.1430372  -0.1021816  43.7509444  29.6032464  -4.1696585  52.3557389
  29.5029191  -3.2202228  52.2869480  29.3854006  -4.4978346  51.4833459
  29.4663734  -0.7399446  51.1722451  28.9830816   0.0600914  51.3786340
  29.5524673  -0.7291501  50.2189895  22.7349694   1.0928934  39.0944270
  22.7120382   1.1916621  38.1426153  23.0450330   1.9394085  39.4161436
  25.3937071   3.1505089  43.2090885  26.3480325   3.1189031  43.1420816
  25.1949595   2.6895713  44.0241111  25.9836454   1.7206205  45.7761682
  26.8029343   2.2150284  45.7996520  26.2573261   0.8038173  45.7479250
  35.7403050  -5.8883043  35.1389638  34.8528905  -5.6033392  34.9209833
  36.1557039  -6.0489279  34.2916915  39.0917586  -5.8636522  38.8543977
  39.8677976  -5.3740069  39.1268594  38.3665720  -5.4378468  39.3115847
  41.5290145  -5.1508903  39.9117918  42.1234635  -5.3913167  39.2011226
  41.6016728  -5.8701772  40.5391454  23.7487300   8.6924708  40.2261082
  23.6141768   7.9325109  39.6599081  23.3319363   9.4165608  39.7589871
  34.8846263   3.8761632  29.2337658  35.5882113   4.0811634  29.8495313
  34.1608912   4.4438394  29.4986741  35.7144074  -0.3728507  35.3539928
  35.6579275   0.0840045  34.5147560  36.2672416  -1.1337822  35.1762771
  39.5248879  -4.5838775  36.1790047  39.2685814  -4.9842139  37.0098255
  38.9001747  -3.8694981  36.0540187  43.8361217  -1.8442702  38.6861339
  43.2760775  -1.7749512  39.4592901  43.2304721  -2.0201717  37.9660835
  26.9056426   9.5894025  40.4379525  26.7888810  10.5339458  40.3358215
  26.0848872   9.2867587  40.8265324  36.7932961   4.3144161  31.2836118
  37.6278565   3.8825360  31.1013593  36.6317304   4.1426175  32.2113012
  36.4478853   0.8176274  32.6492457  36.3927657   0.6520546  31.7080901
  35.8224908   1.5252307  32.8054647  33.7624760   3.1225186  51.9746020
  34.6315920   3.2965839  51.6132655  33.2831512   3.9419603  51.8521749
  27.9310940  10.2422287  43.6535454  28.8338187  10.2745898  43.9701949
  27.7048310   9.3122738  43.6681789  29.6864542   8.9953274  40.3145532
  28.7360173   8.9955135  40.2009904  29.9897028   8.2486008  39.7981567
  45.4217236  14.8313812  41.3791295  46.0595646  14.7120560  40.6754635
  45.3038079  15.7794656  41.4379247  42.2306942  14.7841240  41.3152819
  41.8925454  14.6682305  40.4273354  43.0996710  14.3832405  41.2953825
  38.0893758  16.6376717  37.3049710  37.5258623  16.5466654  36.5365998
  37.9746153  15.8176621  37.7852203  42.7126725  15.9376092  47.2739025
  42.7015366  15.5428890  46.4019528  42.8747365  15.2042165  47.8672796
  35.6358190  18.1327908  40.1433931  36.4279482  17.7918733  39.7280230
  35.8754840  18.2422883  41.0636084  43.6693316  20.3047684  32.6164175
  43.0181296  20.8901765  32.2298189  44.4637679  20.8353879  32.6759213
  37.5948944  17.3936822  33.0151309  38.3679820  16.8465809  32.8764185
  37.9474342  18.2581071  33.2265771  39.4333986  18.7213204  46.2218209
  39.1423852  19.6258835  46.1064875  40.0690971  18.7629731  46.9362278
  40.3590193  16.0990052  42.8119568  40.9553765  15.8746075  42.0976531
  40.4165165  15.3574798  43.4145016  39.9315221  13.5529488  30.6469759
  40.1840742  13.0311009  29.8853222  38.9939781  13.3895633  30.7496443
  44.9758504  12.5565266  38.4544503  45.7621593  12.1384689  38.1034920
  45.2397209  13.4611358  38.6226151  45.1468582  17.9938116  33.1533159
  44.5114415  18.0672743  33.8654064  44.8165988  18.5831715  32.4752239
  50.3766931  12.4940499  39.3577481  51.1092103  11.9239716  39.5915311
  49.6206287  12.1062100  39.7983987  39.6511510  15.4557594  32.8494134
  39.5347768  14.7802497  33.5175219  39.7613770  14.9689968  32.0326287
  41.9943051  14.9167741  36.5540824  41.6301258  14.3898362  37.2653745
  42.8510167  14.5266210  36.3807309  47.8992352   6.2062073  43.8172090
  47.5675677   7.0757484  43.5933305  47.3037965   5.8898357  44.4966120
  41.6348538   9.9457640  31.5502172  41.8022940  10.8137877  31.9172643
  41.4445707  10.1084922  30.6263461  44.3923871  18.4074619  43.2168002
  44.0924594  19.3099658  43.1083810  44.0474931  18.1406803  44.0689155
  37.8436353  14.8588416  39.2504707  36.9186849  14.7264630  39.4582399
  38.0920766  15.6382635  39.7474649  47.7921015  10.9257160  40.8965440
  46.8837892  10.8572568  40.6024201  47.7408611  11.4029104  41.7247265
  41.6137759  12.4015298  32.5348839  41.4937384  12.8472349  33.3734319
  40.9190347  12.7500616  31.9762377  35.2045164  14.5021690  40.0848496
  35.3337545  14.7556169  40.9987908  34.5242615  15.0949398  39.7653151
  39.3744651  25.1718940  36.1838970  39.2968681  26.1226765  36.2627451
  38.7706295  24.8264812  36.8413896  41.8661881  12.3446805  48.8400337
  41.0895215  12.9040725  48.8303202  42.5052444  12.8303588  49.3615207
  49.6582661   9.1273598  42.6743314  49.0157042   9.4206131  42.0283108
  49.1537590   9.0126518  43.4796510  47.3122825  12.8736771  33.3629173
  48.2240681  13.1064158  33.1876871  46.8032472  13.4573815  32.8004252
  40.1208253  15.1532259  48.4018304  40.8622938  15.6917302  48.1253128
  39.4145239  15.7798547  48.5589856  45.5963593  17.2961399  46.9990466
  46.0046949  16.8543809  46.2545098  44.8740854  16.7214026  47.2524658
  41.9494663  12.2334006  44.3724023  42.7955858  12.6573419  44.5158672
  41.8893300  11.5767630  45.0662586  45.9192407  17.8562590  40.7542754
  45.2901270  18.0208304  40.0518822  45.5318070  18.2704199  41.5253718
  49.7981639  18.7917027  38.1087118  49.1132677  19.1715929  37.5584152
  49.8825489  19.4012354  38.8419066  45.0994108   9.8938374  46.0305196
  44.8555040  10.6480435  45.4939472  45.3754039  10.2723722  46.8652443
  47.0532571  16.4376986  44.7082462  47.2649466  17.0808746  44.0316843
  47.0062319  15.6039303  44.2404392  44.6558800   9.0494807  41.6119034
  43.7943279   9.3476061  41.9035771  44.6821235   9.2665206  40.6800067
  41.4720369  17.5936998  38.0192840  41.9358715  17.8724701  37.2297462
  41.2077167  16.6920442  37.8365930  38.3644450  17.1408479  40.9572603
  38.9345807  17.5695748  40.3190087  38.9552562  16.8591064  41.6556788
  40.4089255  13.7160150  34.8282405  41.1113299  14.1681194  35.2956331
  40.0769884  13.0743969  35.4562298  38.8569617  12.3071907  49.2033614
  38.2268277  12.9888188  49.4369011  38.7505705  12.1954988  48.2586752
  34.1514589  11.9743703  40.1299538  33.3613643  12.2301231  39.6539649
  34.6425837  12.7892041  40.2351579  48.1678399  19.3148942  42.8804819
  48.9895843  18.9129129  42.5987501  48.1640802  19.2117176  43.8320935
  36.1029335  12.3388282  37.0883015  35.3060498  12.4506976  37.6066511
  35.8754927  12.6774934  36.2223905  41.9335002  18.8632985  45.0365530
  41.9979435  19.3253392  45.8723701  41.2245926  18.2330350  45.1647839
  32.4352292  12.2274193  42.5614529  32.6860331  13.1121203  42.8272105
  32.9711841  12.0478795  41.7889621  56.2584392  15.6587690  39.2289791
  55.5048100  15.0895088  39.0733795  56.3931933  15.6250355  40.1760425
  41.6483020  20.5301093  34.9044510  41.5128695  21.3752628  35.3329358
  42.1892832  20.7320370  34.1410444  38.1350360   6.6092673  51.5658865
  37.7417305   6.0558871  52.2406509  38.9516500   6.9203251  51.9565383
  35.1012417  18.0476531  35.4772435  35.6136938  18.8419781  35.6278000
  35.7535130  17.3502821  35.4106036  36.9107302  21.1642287  37.5595188
  37.0873930  22.0860252  37.3716172  37.7064136  20.8500706  37.9889568
  41.0518321   8.0250552  49.1579122  41.7928034   8.6257705  49.0783584
  41.2836243   7.2828189  48.5997164  36.1959659  13.2106919  47.4357351
  36.0813174  12.3092176  47.7364450  35.3404176  13.4570616  47.0842168
  43.2751496  21.1524659  49.0344852  42.8315351  20.3661038  48.7165756
  43.9368710  21.3403810  48.3688743  38.0338618  22.6820461  43.5605530
  38.5846043  22.5537524  42.7882524  37.1950093  22.9815350  43.2100423
  45.3732734  21.4327459  47.0626253  45.3551210  22.2536340  46.5706522
  46.2952654  21.3081534  47.2876394  41.8305789  18.9471589  47.9049762
  42.3634125  18.1859877  47.6749070  41.3019870  18.6545240  48.6473916
  44.9975484   4.0531655  43.4343403  44.6539753   4.9433296  43.3582514
  45.3654446   3.8633312  42.5712988  33.0661334  16.3765185  36.2532006
  33.9036556  16.7862193  36.0365713  33.2439602  15.4364627  36.2232199
  44.9625766  14.0440266  31.9415838  44.4472390  14.8144870  32.1804226
  44.6903075  13.3705402  32.5648900  42.5472877   8.8889966  37.0001077
  41.6914474   8.4996817  36.8206716  42.9599829   8.9681927  36.1400862
  44.0772024   6.4236310  41.3992637  43.5736820   6.3866445  40.5860442
  44.3702631   7.3329052  41.4589293  40.3214910   6.5075039  40.4058818
  41.1867907   6.3117848  40.0464708  40.3892419   6.2785391  41.3328175
  49.9360040  16.7972620  33.8769012  49.1589483  16.4583780  33.4324174
  50.6151521  16.8025243  33.2023977  44.7512069  11.9167358  33.7675620
  44.4462205  12.2313507  34.6185763  45.7042512  11.9948778  33.8102953
  43.1958501  18.0757581  35.4168574  42.6679863  17.3410341  35.1041811
  42.6946004  18.8532257  35.1708542  48.1751347  16.2706602  40.5335620
  47.5175022  16.9605863  40.6215749  48.9791747  16.6603033  40.8769606
  37.9277229   8.7377247  37.7775185  38.5020981   8.5152429  37.0448378
  38.5148211   8.8065942  38.5303786  46.9856806  14.6250974  38.5839562
  47.4988688  15.2580966  39.0861271  47.6358030  14.0252170  38.2182922
  38.2546816  10.7681708  31.7971070  37.4184128  11.1056395  32.1180345
  38.1151586  10.6330688  30.8598207  40.2299897   5.6118496  36.5050255
  39.5764309   5.2967513  35.8806869  40.1880371   4.9894237  37.2310078
  41.3411101  15.8937791  28.4203547  40.4338163  15.6627045  28.6194696
  41.8382133  15.0975411  28.6077528  44.2479180  24.6035299  31.3400233
  43.5740879  24.9066995  31.9485191  44.6345002  25.4064379  30.9905690
  43.4637637  12.1000430  40.8297902  42.5460198  12.3215377  40.6719590
  43.8797781  12.1746740  39.9709610  44.2472685  13.4991845  35.9600582
  44.9944504  14.0113243  35.6507705  44.5164274  13.1775898  36.8204976
  42.5199335  15.9950386  32.9427537  41.6110554  15.7109419  33.0400007
  42.5494419  16.4149465  32.0830844  47.7518602  19.6056976  36.7118704
  47.2980929  18.7647886  36.7683895  47.1212569  20.2418374  37.0493484
  46.6951522  10.5348962  37.9419372  45.9574279  10.0226348  38.2729614
  46.9478295  10.0949343  37.1302649  46.1951542  21.4433472  37.6468522
  46.4874516  22.0038529  36.9280888  46.7050162  21.7362033  38.4021682
  46.7963149   3.3125214  38.5361141  47.1022026   2.4522577  38.2487056
  47.5215754   3.9042834  38.3360135  33.0887505  13.7155900  36.9242739
  32.8911905  13.1225261  36.1993806  32.5334169  13.4108111  37.6418678
  41.0684229  13.6079007  39.0437332  41.1232839  12.6552843  38.9679809
  40.2575431  13.7638446  39.5278631  42.2175423  17.5359130  30.2815615
  41.7794853  16.8194989  29.8221253  42.9585864  17.7635245  29.7200707
  39.0076589  12.2256067  36.8027711  38.1944454  12.5250237  37.2092903
  39.5035583  11.8311755  37.5202193  41.1585167  22.2213823  38.7361976
  41.1161346  22.4474670  37.8070508  42.0747866  21.9877198  38.8847777
  44.6050801  12.6897891  45.6342605  44.9600188  12.9169364  46.4937071
  45.2522932  13.0216268  45.0119860  50.3348537  15.8116327  36.3391934
  50.1966436  16.0017923  35.4113123  49.9784756  16.5735710  36.7959985
  38.4990664   9.7974422  42.4188946  39.1390043   9.6563181  41.7211909
  37.6668194   9.5108935  42.0427548  50.3617917  17.8792854  41.3503205
  50.7954424  17.7868143  42.1986259  51.0749498  17.8550354  40.7123221
  39.2750968  19.0976852  38.5323938  40.0691566  18.6027173  38.3306513
  38.5642660  18.5694716  38.1691644  44.0945812  21.4794948  42.8836306
  44.1482834  22.0485884  43.6514022  43.2260593  21.6496833  42.5190343
  35.5833731  13.2419934  34.6083691  34.6531319  13.1804390  34.8253653
  35.6791203  12.7195887  33.8120332  35.5019280   9.7674747  37.1961933
  35.7626097  10.6820080  37.0871093  36.3236452   9.2999190  37.3458546
  36.9744205  11.1812504  44.3660757  37.6467259  10.9729866  43.7173406
  36.1473992  10.9834590  43.9265990  51.2233467  17.9216555  43.8836091
  51.4169357  18.8262365  44.1295366  51.1234085  17.4623974  44.7174676
  42.8769777   7.8074445  46.3826418  42.2297692   8.5064395  46.2890895
  43.6470793   8.2410589  46.7502666  46.2848575  18.0723297  49.4576971
  46.1334082  17.8433849  48.5407055  46.2753255  19.0293899  49.4708316
  43.0533912  15.6455210  44.4423238  43.9825972  15.7966370  44.2692205
  42.6324942  15.7339231  43.5871884  41.8522244  19.6705874  42.2121775
  41.7133329  19.3024659  43.0847714  41.0636840  20.1853514  42.0405733
  42.4470395  24.7714971  33.5547312  42.6222151  24.3003014  34.3692935
  41.7603184  25.3980737  33.7828573  43.4027459  19.0487477  39.6010613
  43.0677291  19.0088247  40.4968263  42.9031404  18.3832193  39.1281023
  37.3771703  14.4555107  45.1263194  37.2391501  13.7235346  45.7274733
  38.2876626  14.3664007  44.8447382  46.3386650  16.3943512  29.8747673
  45.7215821  15.6690340  29.7780726  45.8703139  17.1552872  29.5314747
  40.0054003  14.1675067  44.6146874  40.7153622  13.5268259  44.5733492
  39.9623311  14.4187961  45.5373055  47.9940782  21.1042420  47.5353453
  47.9353328  20.4201640  46.8684036  48.3960300  21.8461410  47.0834079
  38.7182937  11.1540284  46.4342514  38.1820294  10.7031023  47.0864110
  38.1299646  11.2886193  45.6912978  37.0131481  27.9204334  40.3287172
  37.2528079  28.5522858  41.0066191  36.1700677  27.5692374  40.6152531
  38.1285196  10.6128936  28.9968977  37.2514663  10.4917737  28.6331224
  38.6042949   9.8215014  28.7447866  47.9958189  19.0682004  45.7667433
  47.1084968  18.7307926  45.8893832  48.5656740  18.3365035  46.0036198
  29.6487336  15.4006096  39.0910484  30.3358376  15.0867826  38.5031500
  29.4935465  16.3047460  38.8177736  34.4522059  10.2896292  43.5195508
  34.3680247   9.6821962  42.7845918  33.6304765  10.7805310  43.5205004
  41.5259343  23.7283456  42.7328676  41.4529514  24.5338428  43.2447981
  41.0836736  23.9275422  41.9076698  41.3149122  22.9655226  36.2431498
  40.5316644  23.5076906  36.3369722  42.0141867  23.4829206  36.6425739
  44.6245772   8.7749856  38.8865703  45.1214472   8.0219818  38.5666773
  43.8532754   8.8114172  38.3208912  52.4775530  14.4790221  40.5283995
  52.4665406  15.3614937  40.1577928  51.6092909  14.1261772  40.3338532
  43.9858026  23.6270290  44.8886835  44.6985998  24.2617755  44.8162736
  43.4948055  23.7234156  44.0726837  45.7075553  17.5321543  36.4604126
  44.7731832  17.6523005  36.2908831  45.8852222  16.6294010  36.1964136
  41.2080741  10.9167239  38.6137388  40.8378529  10.3638279  39.3018293
  41.7039834  10.3125372  38.0612388  49.0948104  13.3738862  36.9954161
  49.5608557  14.2066854  36.9214463  49.5455605  12.9083844  37.6999419
  39.0369940  21.3764734  45.7092406  39.7379399  22.0101217  45.8621800
  38.5665055  21.7179465  44.9488045  47.1624336  19.7182683  33.9940313
  47.4384179  19.6039278  34.9034187  46.2928834  19.3200168  33.9552486
  47.0664767   5.7419449  41.0345062  46.1527847   5.9723676  41.2027269
  47.4957869   5.8257893  41.8859094  46.8371226  13.9309341  43.5344956
  46.1842676  14.1785249  42.8797409  47.2151606  13.1173479  43.2007433
  43.7978400  23.9669034  37.6373126  43.9800794  23.1490690  38.1000879
  44.6211386  24.1836727  37.1998016  44.1320565  22.8937219  34.8988175
  44.6608331  22.3829674  34.2858337  44.3948785  22.5779750  35.7633708
  42.8858799  14.6729152  50.0210993  42.2099436  14.5723281  50.6913368
  43.7086433  14.5168366  50.4846990  34.6337658  20.9101089  42.6423508
  35.2191095  20.1644777  42.7751413  34.4362496  21.2205045  43.5260172
  37.4876313  23.9452336  37.6585951  36.8186688  24.4298464  37.1749991
  37.3489183  24.1921557  38.5729329  29.2255312  13.4806689  41.3627951
  29.2639412  12.9470280  42.1565070  28.7195605  12.9541894  40.7438929
  41.6281582  25.9796080  44.2568609  42.1799890  26.1427701  45.0217694
  41.9687775  26.5700517  43.5848634  36.6046075   8.3271229  44.8590494
  36.6687401   9.1886060  44.4467891  36.5413195   7.7145231  44.1262852
  36.0798347  10.3994362  48.5063528  36.7070386  10.0171439  49.1201052
  35.2226266  10.1808564  48.8719221  46.4792456  20.8057337  50.1117263
  47.0232360  21.4187295  49.6172218  45.8979301  21.3636916  50.6284277
  32.8563890  12.2070791  34.4381883  33.1517331  11.2981469  34.3848937
  31.9551926  12.1858531  34.1162885  44.7649969  23.9278055  41.2432291
  44.6401108  23.1267795  40.7343237  45.4229060  24.4224249  40.7546261
  36.3858137  10.2826788  40.4209431  35.6644723  10.8962755  40.2816905
  37.1751393  10.8184552  40.3426077  46.8284877  21.7287075  42.8711841
  45.8815213  21.6092426  42.7990168  47.1767650  20.8409573  42.9538103
  39.1884451   7.6181214  46.6950083  39.7118852   7.8643511  47.4576393
  38.9696784   8.4501249  46.2753221  34.5851732   9.8884889  34.5621208
  34.2564438   9.0082268  34.3796314  34.9391102   9.8332557  35.4497597
  43.8331311  21.5239791  39.0716194  43.6856273  20.5956499  39.2523764
  44.6584804  21.5459882  38.5873269  37.6993555  10.1757859  34.9296686
  38.0389627  10.7043780  34.2075294  38.1465675  10.5138265  35.7055252
  47.4365432  22.3468350  40.1581066  48.3611980  22.1411212  40.0205517
  47.2680736  22.0984751  41.0670408  40.3936996   8.5594909  44.3799754
  40.0533816   7.7602722  44.7820434  39.6876002   8.8596620  43.8076587
  41.0453467   5.6444222  42.8327077  41.8679537   5.1704700  42.7105967
  41.2891531   6.4234705  43.3325763  39.6861702   8.6732480  33.1289978
  40.4070064   9.0513733  32.6253695  39.0627006   9.3921357  33.2324956
  43.8292825   9.3777629  34.0648311  44.0456439  10.2602267  33.7637139
  43.3486892   8.9863842  33.3353953  38.5692046  12.3363342  40.6419055
  38.4236627  12.6503645  41.5343337  38.0917250  12.9548243  40.0889954
  40.4288429   9.3265890  40.6899945  40.4149998   8.4306984  40.3532243
  41.1460857   9.3336554  41.3238231  42.2814560   9.7603231  42.7353072
  42.0232338  10.6820301  42.7337403  41.7499600   9.3633665  43.4253536
  47.2260749  22.8654018  35.5143158  47.3997626  22.3000440  34.7617010
  47.7189640  23.6654913  35.3322648  33.0437708  14.8768687  43.5806717
  32.4991176  15.6528495  43.7126991  33.9217058  15.2239491  43.4225838
  39.8325325   8.2080271  35.9587515  39.9541236   7.2796917  36.1578403
  39.5427367   8.2218957  35.0465830  53.0800140  15.6290441  37.1333457
  53.5231286  14.8797766  36.7352581  52.2026650  15.6200577  36.7507189
  48.2135921  22.1820782  32.6140056  48.9086826  22.8027475  32.8327371
  48.5559071  21.3316133  32.8892434  33.8303730  14.0038583  46.4736873
  33.0885466  14.1521218  47.0601504  33.5096475  14.2646849  45.6103623
  50.1127344  19.6320488  34.1427387  50.6378668  19.9707760  33.4176707
  50.0249697  18.6967503  33.9590521  41.7747393  23.5454561  46.2717263
  42.0834519  23.3003708  47.1439963  42.5722875  23.7501200  45.7836134
  41.7968005  25.6992471  38.5022640  41.3572995  25.2068850  39.1955497
  42.5476122  25.1565438  38.2614715  34.2760344  21.8904012  38.5047268
  35.1018364  21.5907784  38.1245912  33.9254396  21.1211634  38.9537057
  39.2441877  21.2430480  40.5744942  38.6221886  20.5801185  40.2747170
  39.9146744  21.2691612  39.8918589  32.4768949  19.8090338  39.4636202
  31.6400857  19.3812513  39.2820203  32.4492594  20.0022781  40.4006993
  39.3166405   9.7212268  50.1677448  39.3654560  10.5974391  49.7855217
  39.8588919   9.1789661  49.5949091  49.8021250  20.2653391  49.4478585
  49.0116794  20.2477530  48.9083084  49.5654605  20.8041685  50.2027621
  49.9219125  17.1145858  46.7611313  49.9717130  16.9495865  47.7026836
  49.8133049  16.2473117  46.3709194  38.8055384  19.7934403  34.0503402
  38.9543504  20.4769868  33.3970075  39.6121827  19.7739493  34.5652858
  47.2122888  13.0976786  48.0770620  48.1132750  12.9583250  47.7854618
  47.2870862  13.2631240  49.0168797  41.5465693  10.4743640  46.9223806
  40.6769002  10.7677206  46.6506395  41.7825173  11.0584085  47.6431070
  51.4237322  19.5342799  47.0053335  51.1322130  19.8972780  47.8416796
  50.8109453  18.8209807  46.8266667  52.6233004  17.0995679  39.5255905
  53.4579896  17.5385483  39.6893465  52.7592133  16.6234332  38.7064151
  49.6724510  14.6575414  45.4733393  50.1478632  14.8503060  44.6652244
  48.7490076  14.7134600  45.2276776  36.5608017  15.8199581  35.0564471
  36.3154059  14.9161911  35.2544681  36.7303932  15.8216731  34.1143949
  44.2504727   6.6923257  44.4389227  44.7686671   7.4284284  44.1135715
  43.8959860   6.9987251  45.2735986  35.8303665  11.5527938  32.5550633
  35.1372909  11.6272293  31.8990669  35.5855416  10.7888282  33.0772149
  44.5017321   3.1123540  39.9590123  44.7819075   2.4446729  40.5850550
  45.2867928   3.3052635  39.4464787  42.3050790  22.2882534  31.5215150
  41.7324757  22.9072721  31.0685621  42.8783583  22.8381895  32.0555072
  48.3726179  11.5341174  43.7061698  49.3243602  11.6339271  43.7273922
  48.2029630  10.7419442  44.2159783  46.3940559   8.6196757  43.8921099
  45.7990491   8.9001770  43.1967588  46.1090256   9.1090658  44.6637840
  45.5248049  22.5719684  32.6523732  46.4578722  22.5065246  32.8556607
  45.4371262  23.4075951  32.1938265  48.1536066  21.8885554  29.6127679
  48.0749697  21.5545418  30.5063437  48.9745733  22.3807322  29.6119152
  50.8514257  14.7547293  42.8203998  50.8190577  13.8163294  43.0063682
  51.4614881  14.8331330  42.0869823  42.6897588  13.6243346  28.8631202
  43.6356693  13.4949555  28.9319620  42.3111833  12.8858008  29.3400630
  51.0008746  11.5458337  42.8662281  50.4847794  10.7616794  42.6792210
  51.8848694  11.2177054  43.0308801  48.6619473   5.2899352  38.8258094
  48.4644294   4.9814441  39.7101426  49.2719178   6.0160991  38.9556024
  56.6690807  15.8163300  41.9610035  57.3994195  15.5548588  42.5217738
  56.0597752  15.0792022  42.0012103  54.7506104  13.9571163  42.5584486
  54.0239268  13.8227128  41.9500978  54.3353391  14.2647992  43.3641204
  42.5736281  17.6761093  50.3231859  43.4939290  17.8539692  50.5171906
  42.5385864  16.7317138  50.1711558  40.8740505  11.5493323  28.7986087
  39.9671961  11.2526436  28.8748801  41.1516486  11.2523141  27.9320374
  31.7918446  12.8699686  39.2485134  31.4721230  12.0164994  38.9559508
  31.2451874  13.0848264  40.0043101  35.5698353  15.5862127  42.9654640
  35.7884363  16.5179235  42.9842674  35.9824127  15.2270102  43.7509444
  42.4902571   6.0930213  34.9530329  41.6803299   5.7477298  35.3285575
  43.1786988   5.7837756  35.5417940  44.4193119   5.1708259  36.5754625
  44.9724158   5.5903713  37.2344648  44.6563206   4.2444007  36.6177581
  40.4426218  11.1595333  52.3557389  40.3422945  12.1089690  52.2869480
  40.2247760  10.8313572  51.4833459  39.6439290   8.4080258  28.9398067
  40.5058454   8.7335156  29.1993884  39.8289634   7.6211754  28.4271132
  31.6606706  16.4902598  41.2178255  30.9670177  16.0756551  40.7048210
  32.4079697  16.5323134  40.6211674  47.7971926   7.2808785  36.0833290
  47.2170595   7.9393589  35.7011342  47.5307859   6.4586129  35.6720707
  46.2475493   6.6813842  38.2854610  46.7475271   6.7930377  37.4768929
  46.8911101   6.3774895  38.9255418  40.3057488  14.5892472  51.1722451
  39.8224570  15.3892832  51.3786340  40.3918428  14.6000417  50.2189895
  33.5743448  16.4220852  39.0944270  33.5514136  16.5208539  38.1426153
  33.8844085  17.2686002  39.4161436  36.2330826  18.4797007  43.2090885
  37.1874080  18.4480949  43.1420816  36.0343350  18.0187630  44.0241111
  36.8230208  17.0498123  45.7761682  37.6423097  17.5442201  45.7996520
  37.0967016  16.1330091  45.7479250  46.5796804   9.4408875  35.1389638
  45.6922659   9.7258526  34.9209833  46.9950793   9.2802638  34.2916915
  49.9311340   9.4655396  38.8543977  50.7071731   9.9551848  39.1268594
  49.2059475   9.8913450  39.3115847  52.3683899  10.1783015  39.9117918
  52.9628390   9.9378751  39.2011226  52.4410483   9.4590146  40.5391454
  34.5881055  24.0216626  40.2261082  34.4535523  23.2617027  39.6599081
  34.1713117  24.7457526  39.7589871  45.7240018  19.2053550  29.2337658
  46.4275868  19.4103552  29.8495313  45.0002667  19.7730311  29.4986741
  46.5537828  14.9563411  35.3539928  46.4973029  15.4131962  34.5147560
  47.1066170  14.1954095  35.1762771  50.3642634  10.7453143  36.1790047
  50.1079568  10.3449778  37.0098255  49.7395502  11.4596937  36.0540187
  54.6754972  13.4849216  38.6861339  54.1154530  13.5542405  39.4592901
  54.0698475  13.3090201  37.9660835  37.7450181  24.9185943  40.4379525
  37.6282565  25.8631376  40.3358215  36.9242627  24.6159505  40.8265324
  47.6326715  19.6436079  31.2836118  48.4672319  19.2117277  31.1013593
  47.4711058  19.4718092  32.2113012  47.2872607  16.1468192  32.6492457
  47.2321411  15.9812464  31.7080901  46.6618663  16.8544225  32.8054647
  32.0765122  11.3836256  46.4753879  32.7223986  10.8735210  46.9641105
  31.8682273  12.1204938  47.0497305  44.6018515  18.4517104  51.9746020
  45.4709674  18.6257756  51.6132655  44.1225266  19.2711521  51.8521749
  40.5968733   5.6476301  32.2277776  40.5847403   6.5918141  32.3846046
  41.4892155   5.4646447  31.9337237  38.7704695  25.5714205  43.6535454
  39.6731941  25.6037815  43.9701949  38.5442065  24.6414656  43.6681789
  40.5258297  24.3245192  40.3145532  39.5753928  24.3247053  40.2009904
  40.8290783  23.5777926  39.7981567  44.4120852   2.2419078  36.4823712
  43.6453248   1.6877564  36.6280395  44.8231557   2.3140946  37.3437864
  36.4162613   8.5303874  50.5728894  37.2794075   8.1740678  50.7832218
  35.8428024   8.1917768  51.2604298  50.7708976  28.8821405  30.6469759
  51.0234497  28.3602927  29.8853222  49.8333535  28.7187551  30.7496443
  52.4742293  25.2749558  31.5502172  52.6416695  26.1429795  31.9172643
  52.2839462  25.4376840  30.6263461  52.4531513  27.7307216  32.5348839
  52.3331139  28.1764266  33.3734319  51.7584102  28.0792533  31.9762377
  46.0438918  29.8313607  40.0848496  46.1731299  30.0848086  40.9987908
  45.3636370  30.4241315  39.7653151  58.1516580  28.2028689  33.3629173
  59.0634436  28.4356076  33.1876871  57.6426227  28.7865733  32.8004252
  44.9908344  27.3035620  40.1299538  44.2007398  27.5593149  39.6539649
  45.4819591  28.1183958  40.2351579  43.2746047  27.5566111  42.5614529
  43.5254085  28.4413121  42.8272105  43.8105595  27.3770712  41.7889621
  48.9744114  21.9384590  51.5658865  48.5811060  21.3850789  52.2406509
  49.7910254  22.2495169  51.9565383  55.5905824  27.2459275  33.7675620
  55.2855959  27.5605425  34.6185763  56.5436266  27.3240695  33.8102953
  48.7670983  24.0669165  37.7775185  49.3414735  23.8444347  37.0448378
  49.3541966  24.1357860  38.5303786  49.0940570  26.0973626  31.7971070
  48.2577883  26.4348313  32.1180345  48.9545340  25.9622606  30.8598207
  51.0693651  20.9410414  36.5050255  50.4158063  20.6259431  35.8806869
  51.0274125  20.3186154  37.2310078  52.1804856  31.2229709  28.4203547
  51.2731918  30.9918962  28.6194696  52.6775888  30.4267328  28.6077528
  57.6356904  18.6417131  38.5361141  57.9415780  17.7814495  38.2487056
  58.3609509  19.2334752  38.3360135  49.3384418  25.1266340  42.4188946
  49.9783797  24.9855099  41.7211909  48.5061949  24.8400853  42.0427548
  46.3413035  25.0966665  37.1961933  46.6019852  26.0111998  37.0871093
  47.1630207  24.6291107  37.3458546  48.9678951  25.9420854  28.9968977
  48.0908417  25.8209654  28.6331224  49.4436704  25.1506932  28.7447866
  45.2915813  25.6188210  43.5195508  45.2074002  25.0113879  42.7845918
  44.4698519  26.1097228  43.5205004  45.4731412  36.2393006  42.6423508
  46.0584849  35.4936694  42.7751413  45.2756251  36.5496963  43.5260172
  40.0649067  28.8098607  41.3627951  40.1033166  28.2762197  42.1565070
  39.5589360  28.2833812  40.7438929  47.4439829  23.6563147  44.8590494
  47.5081156  24.5177978  44.4467891  47.3806950  23.0437149  44.1262852
  46.9192102  25.7286280  48.5063528  47.5464141  25.3463357  49.1201052
  46.0620021  25.5100482  48.8719221  47.2251892  25.6118705  40.4209431
  46.5038477  26.2254673  40.2816905  48.0145147  26.1476470  40.3426077
  50.0278205  22.9473132  46.6950083  50.5512607  23.1935428  47.4576393
  49.8090538  23.7793167  46.2753221  45.4245486  25.2176806  34.5621208
  45.0958192  24.3374185  34.3796314  45.7784857  25.1624475  35.4497597
  48.5387309  25.5049776  34.9296686  48.8783382  26.0335697  34.2075294
  48.9859430  25.8430182  35.7055252  51.2330750  23.8886827  44.3799754
  50.8927570  23.0894640  44.7820434  50.5269756  24.1888538  43.8076587
  50.5255456  24.0024398  33.1289978  51.2463819  24.3805651  32.6253695
  49.9020761  24.7213275  33.2324956  49.4085801  27.6655260  40.6419055
  49.2630381  27.9795563  41.5343337  48.9311004  28.2840160  40.0889954
  43.8831463  30.2060604  43.5806717  43.3384931  30.9820412  43.7126991
  44.7610813  30.5531409  43.4225838  50.6719080  23.5372188  35.9587515
  50.7934991  22.6088834  36.1578403  50.3821122  23.5510874  35.0465830
  44.6697485  29.3330501  46.4736873  43.9279221  29.4813136  47.0601504
  44.3490229  29.5938766  45.6103623  46.6697419  26.8819856  32.5550633
  45.9766664  26.9564211  31.8990669  46.4249171  26.1180200  33.0772149
  55.3411076  18.4415457  39.9590123  55.6212829  17.7738647  40.5850550
  56.1261682  18.6344553  39.4464787  53.5291342  28.9535264  28.8631202
  54.4750447  28.8241472  28.9319620  53.1505587  28.2149926  29.3400630
  51.7134260  26.8785241  28.7986087  50.8065715  26.5818353  28.8748801
  51.9910241  26.5815059  27.9320374  46.4092108  30.9154045  42.9654640
  46.6278117  31.8471153  42.9842674  46.8217881  30.5562019  43.7509444
  53.3296325  21.4222130  34.9530329  52.5197054  21.0769215  35.3285575
  54.0180742  21.1129674  35.5417940  55.2586874  20.5000177  36.5754625
  55.8117912  20.9195630  37.2344648  55.4956960  19.5735925  36.6177581
  50.4833044  23.7372176  28.9398067  51.3452208  24.0627074  29.1993884
  50.6683388  22.9503672  28.4271132  42.5000460  31.8194515  41.2178255
  41.8063931  31.4048468  40.7048210  43.2473451  31.8615052  40.6211674
  57.0869247  22.0105760  38.2854610  57.5869025  22.1222294  37.4768929
  57.7304855  21.7066813  38.9255418  57.4190559  24.7700793  35.1389638
  56.5316414  25.0550443  34.9209833  57.8344548  24.6094556  34.2916915
  42.9158877  26.7128174  46.4753879  43.5617740  26.2027128  46.9641105
  42.7076028  27.4496856  47.0497305  51.4362487  20.9768219  32.2277776
  51.4241157  21.9210059  32.3846046  52.3285909  20.7938364  31.9337237
  55.2514607  17.5710995  36.4823712  54.4847003  17.0169482  36.6280395
  55.6625312  17.6432864  37.3437864  47.2556368  23.8595791  50.5728894
  48.1187829  23.5032596  50.7832218  46.6821778  23.5209686  51.2604298
  77.9398499  60.8189565  41.3791295  78.5776909  60.6996313  40.6754635
  77.8219342  61.7670409  41.4379247  74.7488206  60.7716993  41.3152819
  74.4106717  60.6558058  40.4273354  75.6177974  60.3708158  41.2953825
  70.6075021  62.6252470  37.3049710  70.0439886  62.5342407  36.5365998
  70.4927416  61.8052374  37.7852203  75.2307989  61.9251845  47.2739025
  75.2196629  61.5304643  46.4019528  75.3928628  61.1917918  47.8672796
  76.1874580  66.2923437  32.6164175  75.5362560  66.8777518  32.2298189
  76.9818943  66.8229632  32.6759213  70.1130207  63.3812575  33.0151309
  70.8861083  62.8341562  32.8764185  70.4655606  64.2456824  33.2265771
  71.9515250  64.7088957  46.2218209  71.6605116  65.6134588  46.1064875
  72.5872234  64.7505484  46.9362278  72.8771457  62.0865805  42.8119568
  73.4735029  61.8621828  42.0976531  72.9346428  61.3450551  43.4145016
  77.4939768  58.5441019  38.4544503  78.2802857  58.1260442  38.1034920
  77.7578472  59.4487111  38.6226151  77.6649845  63.9813869  33.1533159
  77.0295678  64.0548496  33.8654064  77.3347251  64.5707468  32.4752239
  82.8948195  58.4816252  39.3577481  83.6273367  57.9115469  39.5915311
  82.1387551  58.0937853  39.7983987  72.1692774  61.4433347  32.8494134
  72.0529032  60.7678250  33.5175219  72.2795034  60.9565721  32.0326287
  74.5124315  60.9043494  36.5540824  74.1482522  60.3774115  37.2653745
  75.3691430  60.5141963  36.3807309  80.4173615  52.1937826  43.8172090
  80.0856940  53.0633237  43.5933305  79.8219229  51.8774110  44.4966120
  76.9105135  64.3950372  43.2168002  76.6105858  65.2975411  43.1083810
  76.5656194  64.1282556  44.0689155  70.3617616  60.8464169  39.2504707
  69.4368113  60.7140383  39.4582399  70.6102029  61.6258388  39.7474649
  80.3102279  56.9132913  40.8965440  79.4019156  56.8448321  40.6024201
  80.2589874  57.3904858  41.7247265  71.8925915  71.1594693  36.1838970
  71.8149944  72.1102518  36.2627451  71.2887558  70.8140565  36.8413896
  74.3843144  58.3322558  48.8400337  73.6076478  58.8916478  48.8303202
  75.0233707  58.8179341  49.3615207  82.1763925  55.1149351  42.6743314
  81.5338305  55.4081884  42.0283108  81.6718853  55.0002271  43.4796510
  79.8304089  58.8612524  33.3629173  80.7421945  59.0939911  33.1876871
  79.3213736  59.4449568  32.8004252  72.6389517  61.1408012  48.4018304
  73.3804201  61.6793055  48.1253128  71.9326502  61.7674300  48.5589856
  78.1144856  63.2837152  46.9990466  78.5228212  62.8419563  46.2545098
  77.3922118  62.7089780  47.2524658  78.4373671  63.8438343  40.7542754
  77.8082533  64.0084057  40.0518822  78.0499333  64.2579952  41.5253718
  82.3162903  64.7792780  38.1087118  81.6313941  65.1591682  37.5584152
  82.4006752  65.3888107  38.8419066  77.6175372  55.8814127  46.0305196
  77.3736304  56.6356188  45.4939472  77.8935302  56.2599475  46.8652443
  79.5713834  62.4252739  44.7082462  79.7830730  63.0684499  44.0316843
  79.5243583  61.5915056  44.2404392  77.1740063  55.0370560  41.6119034
  76.3124542  55.3351814  41.9035771  77.2002498  55.2540959  40.6800067
  73.9901633  63.5812751  38.0192840  74.4539978  63.8600454  37.2297462
  73.7258431  62.6796195  37.8365930  70.8825714  63.1284232  40.9572603
  71.4527071  63.5571501  40.3190087  71.4733826  62.8466817  41.6556788
  72.9270519  59.7035903  34.8282405  73.6294562  60.1556947  35.2956331
  72.5951147  59.0619722  35.4562298  71.3750880  58.2947660  49.2033614
  70.7449541  58.9763941  49.4369011  71.2686968  58.1830741  48.2586752
  66.6695853  57.9619456  40.1299538  65.8794907  58.2176984  39.6539649
  67.1607100  58.7767794  40.2351579  80.6859662  65.3024695  42.8804819
  81.5077106  64.9004882  42.5987501  80.6822065  65.1992929  43.8320935
  74.4516266  64.8508738  45.0365530  74.5160698  65.3129145  45.8723701
  73.7427190  64.2206103  45.1647839  88.7765655  61.6463443  39.2289791
  88.0229364  61.0770841  39.0733795  88.9113197  61.6126108  40.1760425
  74.1664283  66.5176846  34.9044510  74.0309958  67.3628381  35.3329358
  74.7074096  66.7196123  34.1410444  67.6193681  64.0352284  35.4772435
  68.1318201  64.8295534  35.6278000  68.2716394  63.3378574  35.4106036
  69.4288566  67.1518040  37.5595188  69.6055194  68.0736005  37.3716172
  70.2245399  66.8376459  37.9889568  73.5699584  54.0126305  49.1579122
  74.3109297  54.6133458  49.0783584  73.8017507  53.2703942  48.5997164
  75.7932760  67.1400412  49.0344852  75.3496614  66.3536791  48.7165756
  76.4549973  67.3279563  48.3688743  70.5519881  68.6696214  43.5605530
  71.1027306  68.5413277  42.7882524  69.7131357  68.9691103  43.2100423
  77.8913998  67.4203212  47.0626253  77.8732473  68.2412093  46.5706522
  78.8133918  67.2957287  47.2876394  74.3487052  64.9347342  47.9049762
  74.8815389  64.1735630  47.6749070  73.8201133  64.6420993  48.6473916
  77.4807030  60.0316019  31.9415838  76.9653653  60.8020623  32.1804226
  77.2084338  59.3581155  32.5648900  82.4541304  62.7848373  33.8769012
  81.6770747  62.4459533  33.4324174  83.1332785  62.7900996  33.2023977
  77.2693333  57.9043111  33.7675620  76.9643468  58.2189260  34.6185763
  78.2223775  57.9824531  33.8102953  75.7139765  64.0633334  35.4168574
  75.1861126  63.3286094  35.1041811  75.2127267  64.8408010  35.1708542
  80.6932611  62.2582355  40.5335620  80.0356285  62.9481616  40.6215749
  81.4973010  62.6478787  40.8769606  79.5038070  60.6126727  38.5839562
  80.0169951  61.2456719  39.0861271  80.1539293  60.0127923  38.2182922
  73.8592365  61.8813544  28.4203547  72.9519427  61.6502798  28.6194696
  74.3563397  61.0851164  28.6077528  76.7660444  70.5911052  31.3400233
  76.0922143  70.8942748  31.9485191  77.1526266  71.3940132  30.9905690
  75.9818900  58.0876183  40.8297902  75.0641462  58.3091130  40.6719590
  76.3979044  58.1622493  39.9709610  76.7653948  59.4867599  35.9600582
  77.5125767  59.9988996  35.6507705  77.0345538  59.1651651  36.8204976
  75.0380598  61.9826139  32.9427537  74.1291818  61.6985172  33.0400007
  75.0675682  62.4025218  32.0830844  80.2699866  65.5932729  36.7118704
  79.8162193  64.7523639  36.7683895  79.6393832  66.2294127  37.0493484
  79.2132785  56.5224715  37.9419372  78.4755542  56.0102101  38.2729614
  79.4659559  56.0825096  37.1302649  78.7132805  67.4309225  37.6468522
  79.0055779  67.9914283  36.9280888  79.2231426  67.7237786  38.4021682
  73.5865492  59.5954760  39.0437332  73.6414102  58.6428596  38.9679809
  72.7756694  59.7514199  39.5278631  74.7356686  63.5234883  30.2815615
  74.2976116  62.8070742  29.8221253  75.4767127  63.7510998  29.7200707
  73.6766430  68.2089577  38.7361976  73.6342609  68.4350423  37.8070508
  74.5929129  67.9752951  38.8847777  77.1232064  58.6773644  45.6342605
  77.4781452  58.9045117  46.4937071  77.7704195  59.0092021  45.0119860
  82.8529801  61.7992080  36.3391934  82.7147700  61.9893676  35.4113123
  82.4966020  62.5611463  36.7959985  82.8799181  63.8668607  41.3503205
  83.3135687  63.7743896  42.1986259  83.5930761  63.8426107  40.7123221
  71.7932231  65.0852606  38.5323938  72.5872829  64.5902926  38.3306513
  71.0823923  64.5570469  38.1691644  76.6127075  67.4670701  42.8836306
  76.6664098  68.0361637  43.6514022  75.7441857  67.6372586  42.5190343
  83.7414730  63.9092308  43.8836091  83.9350620  64.8138118  44.1295366
  83.6415348  63.4499727  44.7174676  75.3951041  53.7950198  46.3826418
  74.7478956  54.4940148  46.2890895  76.1652056  54.2286342  46.7502666
  78.8029839  64.0599050  49.4576971  78.6515345  63.8309602  48.5407055
  78.7934518  65.0169652  49.4708316  75.5715175  61.6330963  44.4423238
  76.5007235  61.7842123  44.2692205  75.1506205  61.7214984  43.5871884
  74.3703507  65.6581628  42.2121775  74.2314593  65.2900412  43.0847714
  73.5818103  66.1729267  42.0405733  74.9651659  70.7590724  33.5547312
  75.1403415  70.2878767  34.3692935  74.2784447  71.3856490  33.7828573
  75.9208722  65.0363230  39.6010613  75.5858555  64.9964000  40.4968263
  75.4212668  64.3707946  39.1281023  78.8567914  62.3819265  29.8747673
  78.2397084  61.6566093  29.7780726  78.3884402  63.1428625  29.5314747
  80.5122045  67.0918173  47.5353453  80.4534592  66.4077393  46.8684036
  80.9141564  67.8337163  47.0834079  69.5312744  73.9080087  40.3287172
  69.7709342  74.5398611  41.0066191  68.6881941  73.5568127  40.6152531
  80.5139453  65.0557757  45.7667433  79.6266231  64.7183679  45.8893832
  81.0838004  64.3240788  46.0036198  74.0440606  69.7159209  42.7328676
  73.9710778  70.5214181  43.2447981  73.6017999  69.9151175  41.9076698
  73.8330386  68.9530979  36.2431498  73.0497908  69.4952659  36.3369722
  74.5323131  69.4704959  36.6425739  84.9956793  60.4665974  40.5283995
  84.9846669  61.3490690  40.1577928  84.1274173  60.1137525  40.3338532
  76.5039290  69.6146043  44.8886835  77.2167262  70.2493508  44.8162736
  76.0129318  69.7109909  44.0726837  78.2256817  63.5197296  36.4604126
  77.2913095  63.6398758  36.2908831  78.4033485  62.6169763  36.1964136
  73.7262005  56.9042992  38.6137388  73.3559792  56.3514032  39.3018293
  74.2221097  56.3001125  38.0612388  81.6129368  59.3614615  36.9954161
  82.0789820  60.1942607  36.9214463  82.0636868  58.8959597  37.6999419
  71.5551203  67.3640487  45.7092406  72.2560663  67.9976970  45.8621800
  71.0846318  67.7055218  44.9488045  79.6805599  65.7058436  33.9940313
  79.9565443  65.5915031  34.9034187  78.8110098  65.3075921  33.9552486
  79.5846031  51.7295202  41.0345062  78.6709110  51.9599429  41.2027269
  80.0139132  51.8133646  41.8859094  79.3552489  59.9185094  43.5344956
  78.7023939  60.1661002  42.8797409  79.7332869  59.1049232  43.2007433
  76.3159663  69.9544787  37.6373126  76.4982058  69.1366443  38.1000879
  77.1392649  70.1712480  37.1998016  76.6501829  68.8812972  34.8988175
  77.1789595  68.3705427  34.2858337  76.9130048  68.5655503  35.7633708
  75.4040062  60.6604905  50.0210993  74.7280699  60.5599035  50.6913368
  76.2267696  60.5044119  50.4846990  70.0057576  69.9328089  37.6585951
  69.3367952  70.4174217  37.1749991  69.8670446  70.1797310  38.5729329
  74.1462845  71.9671833  44.2568609  74.6981153  72.1303454  45.0217694
  74.4869038  72.5576270  43.5848634  78.9973719  66.7933090  50.1117263
  79.5413623  67.4063048  49.6172218  78.4160564  67.3512669  50.6284277
  77.2831232  69.9153808  41.2432291  77.1582372  69.1143548  40.7343237
  77.9410323  70.4100002  40.7546261  79.3466141  67.7162828  42.8711841
  78.3996476  67.5968179  42.7990168  79.6948914  66.8285326  42.9538103
  76.3512574  67.5115544  39.0716194  76.2037536  66.5832252  39.2523764
  77.1766067  67.5335635  38.5873269  79.9546696  68.3344103  40.1581066
  80.8793243  68.1286965  40.0205517  79.7861999  68.0860504  41.0670408
  79.7442012  68.8529771  35.5143158  79.9178890  68.2876193  34.7617010
  80.2370903  69.6530666  35.3322648  85.5981403  61.6166194  37.1333457
  86.0412549  60.8673519  36.7352581  84.7207914  61.6076330  36.7507189
  80.7317185  68.1696535  32.6140056  81.4268089  68.7903228  32.8327371
  81.0740335  67.3191886  32.8892434  82.6308608  65.6196241  34.1427387
  83.1559932  65.9583513  33.4176707  82.5430960  64.6843256  33.9590521
  74.2928656  69.5330314  46.2717263  74.6015783  69.2879461  47.1439963
  75.0904138  69.7376953  45.7836134  74.3149268  71.6868224  38.5022640
  73.8754259  71.1944603  39.1955497  75.0657385  71.1441192  38.2614715
  66.7941607  67.8779765  38.5047268  67.6199627  67.5783537  38.1245912
  66.4435659  67.1087387  38.9537057  71.7623141  67.2306233  40.5744942
  71.1403150  66.5676938  40.2747170  72.4328007  67.2567365  39.8918589
  71.8347668  55.7088021  50.1677448  71.8835824  56.5850144  49.7855217
  72.3770182  55.1665414  49.5949091  82.3202514  66.2529144  49.4478585
  81.5298057  66.2353283  48.9083084  82.0835868  66.7917438  50.2027621
  82.4400389  63.1021611  46.7611313  82.4898394  62.9371618  47.7026836
  82.3314312  62.2348870  46.3709194  71.3236647  65.7810156  34.0503402
  71.4724768  66.4645621  33.3970075  72.1303091  65.7615246  34.5652858
  79.7304151  59.0852539  48.0770620  80.6314014  58.9459003  47.7854618
  79.8052126  59.2506993  49.0168797  83.9418586  65.5218552  47.0053335
  83.6503394  65.8848533  47.8416796  83.3290717  64.8085560  46.8266667
  85.1414268  63.0871432  39.5255905  85.9761159  63.5261236  39.6893465
  85.2773397  62.6110085  38.7064151  82.1905774  60.6451167  45.4733393
  82.6659895  60.8378813  44.6652244  81.2671339  60.7010353  45.2276776
  76.7685990  52.6799010  44.4389227  77.2867934  53.4160037  44.1135715
  76.4141123  52.9863004  45.2735986  74.8232053  68.2758287  31.5215150
  74.2506020  68.8948474  31.0685621  75.3964847  68.8257648  32.0555072
  80.8907443  57.5216927  43.7061698  81.8424866  57.6215024  43.7273922
  80.7210893  56.7295195  44.2159783  78.9121822  54.6072510  43.8921099
  78.3171754  54.8877523  43.1967588  78.6271519  55.0966411  44.6637840
  78.0429313  68.5595437  32.6523732  78.9759986  68.4940999  32.8556607
  77.9552526  69.3951704  32.1938265  80.6717329  67.8761307  29.6127679
  80.5930961  67.5421171  30.5063437  81.4926996  68.3683075  29.6119152
  83.3695521  60.7423047  42.8203998  83.3371841  59.8039047  43.0063682
  83.9796144  60.8207083  42.0869823  83.5190009  57.5334090  42.8662281
  83.0029058  56.7492547  42.6792210  84.4029958  57.2052807  43.0308801
  81.1800736  51.2775106  38.8258094  80.9825557  50.9690194  39.7101426
  81.7900442  52.0036744  38.9556024  89.1872070  61.8039053  41.9610035
  89.9175459  61.5424341  42.5217738  88.5779016  61.0667775  42.0012103
  87.2687368  59.9446916  42.5584486  86.5420531  59.8102881  41.9500978
  86.8534654  60.2523745  43.3641204  75.0917544  63.6636846  50.3231859
  76.0120553  63.8415445  50.5171906  75.0567127  62.7192891  50.1711558
  72.9607482  57.1471086  52.3557389  72.8604209  58.0965443  52.2869480
  72.7429024  56.8189325  51.4833459  72.8238752  60.5768225  51.1722451
  72.3405834  61.3768585  51.3786340  72.9099691  60.5876170  50.2189895
  82.4492604  55.4531149  38.8543977  83.2252994  55.9427601  39.1268594
  81.7240738  55.8789203  39.3115847  84.8865163  56.1658768  39.9117918
  85.4809653  55.9254504  39.2011226  84.9591746  55.4465899  40.5391454
  67.1062318  70.0092379  40.2261082  66.9716786  69.2492780  39.6599081
  66.6894380  70.7333279  39.7589871  78.2421281  65.1929303  29.2337658
  78.9457131  65.3979305  29.8495313  77.5183930  65.7606065  29.4986741
  79.0719092  60.9439164  35.3539928  79.0154293  61.4007715  34.5147560
  79.6247434  60.1829848  35.1762771  82.8823897  56.7328896  36.1790047
  82.6260832  56.3325531  37.0098255  82.2576765  57.4472690  36.0540187
  87.1936235  59.4724969  38.6861339  86.6335793  59.5418158  39.4592901
  86.5879739  59.2965954  37.9660835  70.2631444  70.9061696  40.4379525
  70.1463828  71.8507129  40.3358215  69.4423890  70.6035258  40.8265324
  80.1507979  65.6311832  31.2836118  80.9853583  65.1993030  31.1013593
  79.9892322  65.4593846  32.2113012  79.8053871  62.1343945  32.6492457
  79.7502675  61.9688217  31.7080901  79.1799926  62.8419978  32.8054647
  77.1199778  64.4392857  51.9746020  77.9890938  64.6133509  51.6132655
  76.6406529  65.2587274  51.8521749  71.2885958  71.5589958  43.6535454
  72.1913205  71.5913568  43.9701949  71.0623328  70.6290409  43.6681789
  73.0439560  70.3120945  40.3145532  72.0935191  70.3122806  40.2009904
  73.3472046  69.5653679  39.7981567  88.7792254  76.1481483  41.3791295
  89.4170664  76.0288230  40.6754635  88.6613097  77.0962327  41.4379247
  85.5881960  76.1008911  41.3152819  85.2500472  75.9849976  40.4273354
  86.4571728  75.7000076  41.2953825  81.4468776  77.9544387  37.3049710
  80.8833641  77.8634324  36.5365998  81.3321171  77.1344292  37.7852203
  86.0701743  77.2543763  47.2739025  86.0590384  76.8596561  46.4019528
  86.2322382  76.5209835  47.8672796  78.9933208  79.4495579  40.1433931
  79.7854500  79.1086404  39.7280230  79.2329858  79.5590554  41.0636084
  87.0268334  81.6215355  32.6164175  86.3756314  82.2069436  32.2298189
  87.8212697  82.1521550  32.6759213  80.9523962  78.7104492  33.0151309
  81.7254838  78.1633479  32.8764185  81.3049360  79.5748742  33.2265771
  82.7909004  80.0380875  46.2218209  82.4998870  80.9426505  46.1064875
  83.4265988  80.0797402  46.9362278  83.7165211  77.4157723  42.8119568
  84.3128783  77.1913745  42.0976531  83.7740183  76.6742469  43.4145016
  83.2890239  74.8697158  30.6469759  83.5415760  74.3478680  29.8853222
  82.3514798  74.7063304  30.7496443  88.3333522  73.8732937  38.4544503
  89.1196611  73.4552360  38.1034920  88.5972227  74.7779029  38.6226151
  88.5043600  79.3105787  33.1533159  87.8689433  79.3840414  33.8654064
  88.1741006  79.8999386  32.4752239  93.7341949  73.8108170  39.3577481
  94.4667121  73.2407387  39.5915311  92.9781305  73.4229770  39.7983987
  83.0086528  76.7725264  32.8494134  82.8922786  76.0970168  33.5175219
  83.1188788  76.2857638  32.0326287  85.3518069  76.2335411  36.5540824
  84.9876276  75.7066032  37.2653745  86.2085185  75.8433881  36.3807309
  91.2567370  67.5229744  43.8172090  90.9250694  68.3925155  43.5933305
  90.6612983  67.2066028  44.4966120  84.9923556  71.2625311  31.5502172
  85.1597958  72.1305548  31.9172643  84.8020725  71.4252593  30.6263461
  87.7498889  79.7242290  43.2168002  87.4499612  80.6267329  43.1083810
  87.4049949  79.4574473  44.0689155  81.2011371  76.1756087  39.2504707
  80.2761867  76.0432301  39.4582399  81.4495784  76.9550306  39.7474649
  91.1496033  72.2424830  40.8965440  90.2412910  72.1740239  40.6024201
  91.0983629  72.7196775  41.7247265  84.9712777  73.7182969  32.5348839
  84.8512402  74.1640019  33.3734319  84.2765365  74.0668286  31.9762377
  78.5620182  75.8189360  40.0848496  78.6912563  76.0723839  40.9987908
  77.8817633  76.4117068  39.7653151  82.7319669  86.4886610  36.1838970
  82.6543699  87.4394436  36.2627451  82.1281313  86.1432483  36.8413896
  85.2236899  73.6614476  48.8400337  84.4470233  74.2208396  48.8303202
  85.8627462  74.1471259  49.3615207  93.0157679  70.4441269  42.6743314
  92.3732060  70.7373802  42.0283108  92.5112608  70.3294189  43.4796510
  90.6697843  74.1904442  33.3629173  91.5815699  74.4231829  33.1876871
  90.1607490  74.7741486  32.8004252  83.4783271  76.4699929  48.4018304
  84.2197955  77.0084973  48.1253128  82.7720257  77.0966218  48.5589856
  88.9538611  78.6129070  46.9990466  89.3621967  78.1711480  46.2545098
  88.2315872  78.0381697  47.2524658  85.3069681  73.5501676  44.3724023
  86.1530876  73.9741090  44.5158672  85.2468318  72.8935301  45.0662586
  89.2767425  79.1730260  40.7542754  88.6476288  79.3375974  40.0518822
  88.8893087  79.5871870  41.5253718  93.1556657  80.1084698  38.1087118
  92.4707695  80.4883600  37.5584152  93.2400507  80.7180025  38.8419066
  88.4569126  71.2106045  46.0305196  88.2130058  71.9648105  45.4939472
  88.7329057  71.5891392  46.8652443  90.4107589  77.7544657  44.7082462
  90.6224484  78.3976417  44.0316843  90.3637337  76.9206974  44.2404392
  88.0133818  70.3662478  41.6119034  87.1518297  70.6643731  41.9035771
  88.0396252  70.5832877  40.6800067  84.8295387  78.9104668  38.0192840
  85.2933733  79.1892371  37.2297462  84.5652185  78.0088113  37.8365930
  81.7219468  78.4576150  40.9572603  82.2920825  78.8863418  40.3190087
  82.3127580  78.1758735  41.6556788  83.7664273  75.0327821  34.8282405
  84.4688317  75.4848864  35.2956331  83.4344902  74.3911640  35.4562298
  82.2144635  73.6239577  49.2033614  81.5843295  74.3055858  49.4369011
  82.1080723  73.5122659  48.2586752  77.5089607  73.2911373  40.1299538
  76.7188661  73.5468902  39.6539649  78.0000855  74.1059711  40.2351579
  91.5253417  80.6316613  42.8804819  92.3470861  80.2296800  42.5987501
  91.5215820  80.5284847  43.8320935  79.4604353  73.6555953  37.0883015
  78.6635516  73.7674647  37.6066511  79.2329945  73.9942605  36.2223905
  85.2910020  80.1800656  45.0365530  85.3554453  80.6421063  45.8723701
  84.5820944  79.5498021  45.1647839  75.7927310  73.5441864  42.5614529
  76.0435349  74.4288874  42.8272105  76.3286859  73.3646465  41.7889621
  99.6159410  76.9755361  39.2289791  98.8623118  76.4062759  39.0733795
  99.7506951  76.9418026  40.1760425  85.0058038  81.8468763  34.9044510
  84.8703713  82.6920299  35.3329358  85.5467850  82.0488041  34.1410444
  81.4925378  67.9260343  51.5658865  81.0992323  67.3726542  52.2406509
  82.3091518  68.2370922  51.9565383  78.4587435  79.3644201  35.4772435
  78.9711956  80.1587452  35.6278000  79.1110148  78.6670492  35.4106036
  80.2682320  82.4809958  37.5595188  80.4448948  83.4027922  37.3716172
  81.0639154  82.1668377  37.9889568  84.4093339  69.3418222  49.1579122
  85.1503052  69.9425375  49.0783584  84.6411261  68.5995860  48.5997164
  79.5534677  74.5274590  47.4357351  79.4388192  73.6259847  47.7364450
  78.6979194  74.7738286  47.0842168  86.6326514  82.4692330  49.0344852
  86.1890369  81.6828708  48.7165756  87.2943728  82.6571480  48.3688743
  81.3913635  83.9988131  43.5605530  81.9421061  83.8705195  42.7882524
  80.5525111  84.2983020  43.2100423  88.7307752  82.7495130  47.0626253
  88.7126228  83.5704011  46.5706522  89.6527672  82.6249205  47.2876394
  85.1880807  80.2639259  47.9049762  85.7209143  79.5027547  47.6749070
  84.6594888  79.9712911  48.6473916  88.3550502  65.3699325  43.4343403
  88.0114771  66.2600967  43.3582514  88.7229464  65.1800983  42.5712988
  76.4236352  77.6932856  36.2532006  77.2611574  78.1029864  36.0365713
  76.6014620  76.7532298  36.2232199  88.3200784  75.3607936  31.9415838
  87.8047408  76.1312541  32.1804226  88.0478093  74.6873073  32.5648900
  85.9047895  70.2057637  37.0001077  85.0489492  69.8164488  36.8206716
  86.3174847  70.2849598  36.1400862  87.4347042  67.7403980  41.3992637
  86.9311837  67.7034116  40.5860442  87.7277649  68.6496723  41.4589293
  83.6789928  67.8242710  40.4058818  84.5442925  67.6285519  40.0464708
  83.7467437  67.5953062  41.3328175  93.2935058  78.1140291  33.8769012
  92.5164501  77.7751451  33.4324174  93.9726539  78.1192914  33.2023977
  88.1087087  73.2335028  33.7675620  87.8037223  73.5481178  34.6185763
  89.0617530  73.3116448  33.8102953  86.5533519  79.3925252  35.4168574
  86.0254881  78.6578011  35.1041811  86.0521022  80.1699928  35.1708542
  91.5326365  77.5874272  40.5335620  90.8750040  78.2773534  40.6215749
  92.3366764  77.9770704  40.8769606  81.2852247  70.0544918  37.7775185
  81.8595999  69.8320100  37.0448378  81.8723229  70.1233613  38.5303786
  90.3431824  75.9418645  38.5839562  90.8563706  76.5748637  39.0861271
  90.9933048  75.3419840  38.2182922  81.6121834  72.0849379  31.7971070
  80.7759146  72.4224066  32.1180345  81.4726604  71.9498359  30.8598207
  83.5874915  66.9286167  36.5050255  82.9339327  66.6135184  35.8806869
  83.5455389  66.3061907  37.2310078  84.6986119  77.2105462  28.4203547
  83.7913181  76.9794715  28.6194696  85.1957151  76.4143081  28.6077528
  87.6054198  85.9202969  31.3400233  86.9315897  86.2234666  31.9485191
  87.9920020  86.7232050  30.9905690  86.8212655  73.4168101  40.8297902
  85.9035216  73.6383048  40.6719590  87.2372799  73.4914411  39.9709610
  87.6047703  74.8159516  35.9600582  88.3519522  75.3280913  35.6507705
  87.8739292  74.4943569  36.8204976  85.8774353  77.3118057  32.9427537
  84.9685572  77.0277090  33.0400007  85.9069437  77.7317135  32.0830844
  91.1093620  80.9224646  36.7118704  90.6555947  80.0815556  36.7683895
  90.4787587  81.5586045  37.0493484  90.0526540  71.8516632  37.9419372
  89.3149297  71.3394019  38.2729614  90.3053313  71.4117014  37.1302649
  89.5526560  82.7601143  37.6468522  89.8449534  83.3206200  36.9280888
  90.0625180  83.0529704  38.4021682  90.1538167  64.6292884  38.5361141
  90.4597044  63.7690248  38.2487056  90.8790772  65.2210505  38.3360135
  76.4462523  75.0323571  36.9242739  76.2486923  74.4392932  36.1993806
  75.8909187  74.7275781  37.6418678  84.4259247  74.9246678  39.0437332
  84.4807857  73.9720514  38.9679809  83.6150449  75.0806117  39.5278631
  85.5750441  78.8526801  30.2815615  85.1369871  78.1362660  29.8221253
  86.3160882  79.0802915  29.7200707  82.3651607  73.5423737  36.8027711
  81.5519472  73.8417908  37.2092903  82.8610601  73.1479426  37.5202193
  84.5160185  83.5381494  38.7361976  84.4736364  83.7642340  37.8070508
  85.4322884  83.3044869  38.8847777  87.9625819  74.0065562  45.6342605
  88.3175206  74.2337035  46.4937071  88.6097950  74.3383939  45.0119860
  93.6923555  77.1283998  36.3391934  93.5541454  77.3185594  35.4113123
  93.3359774  77.8903380  36.7959985  81.8565682  71.1142093  42.4188946
  82.4965061  70.9730852  41.7211909  81.0243212  70.8276606  42.0427548
  93.7192935  79.1960525  41.3503205  94.1529442  79.1035814  42.1986259
  94.4324516  79.1718025  40.7123221  82.6325985  80.4144523  38.5323938
  83.4266584  79.9194843  38.3306513  81.9217678  79.8862386  38.1691644
  87.4520830  82.7962619  42.8836306  87.5057852  83.3653555  43.6514022
  86.5835611  82.9664504  42.5190343  78.9408749  74.5587605  34.6083691
  78.0106337  74.4972060  34.8253653  79.0366221  74.0363558  33.8120332
  78.8594298  71.0842418  37.1961933  79.1201115  71.9987751  37.0871093
  79.6811470  70.6166860  37.3458546  80.3319223  72.4980175  44.3660757
  81.0042277  72.2897537  43.7173406  79.5049010  72.3002261  43.9265990
  94.5808485  79.2384225  43.8836091  94.7744375  80.1430036  44.1295366
  94.4809103  78.7791644  44.7174676  86.2344795  69.1242116  46.3826418
  85.5872710  69.8232066  46.2890895  87.0045811  69.5578260  46.7502666
  89.6423593  79.3890968  49.4576971  89.4909100  79.1601520  48.5407055
  89.6328273  80.3461569  49.4708316  86.4108930  76.9622881  44.4423238
  87.3400990  77.1134040  44.2692205  85.9899960  77.0506902  43.5871884
  85.2097261  80.9873545  42.2121775  85.0708347  80.6192330  43.0847714
  84.4211858  81.5021185  42.0405733  85.8045413  86.0882642  33.5547312
  85.9797169  85.6170685  34.3692935  85.1178201  86.7148408  33.7828573
  86.7602477  80.3655148  39.6010613  86.4252309  80.3255918  40.4968263
  86.2606422  79.6999864  39.1281023  80.7346721  75.7722778  45.1263194
  80.5966519  75.0403017  45.7274733  81.6451644  75.6831678  44.8447382
  89.6961668  77.7111182  29.8747673  89.0790839  76.9858010  29.7780726
  89.2278157  78.4720543  29.5314747  83.3629021  75.4842737  44.6146874
  84.0728640  74.8435929  44.5733492  83.3198329  75.7355632  45.5373055
  91.3515800  82.4210091  47.5353453  91.2928346  81.7369311  46.8684036
  91.7535318  83.1629081  47.0834079  82.0757955  72.4707955  46.4342514
  81.5395312  72.0198694  47.0864110  81.4874664  72.6053864  45.6912978
  80.3706499  89.2372004  40.3287172  80.6103097  89.8690529  41.0066191
  79.5275695  88.8860044  40.6152531  81.4860214  71.9296607  28.9968977
  80.6089681  71.8085407  28.6331224  81.9617967  71.1382685  28.7447866
  91.3533207  80.3849675  45.7667433  90.4659986  80.0475596  45.8893832
  91.9231758  79.6532706  46.0036198  73.0062354  76.7173766  39.0910484
  73.6933394  76.4035496  38.5031500  72.8510483  77.6215131  38.8177736
  77.8097076  71.6063963  43.5195508  77.7255265  70.9989632  42.7845918
  76.9879783  72.0972981  43.5205004  84.8834361  85.0451127  42.7328676
  84.8104532  85.8506098  43.2447981  84.4411754  85.2443093  41.9076698
  84.6724140  84.2822897  36.2431498  83.8891662  84.8244577  36.3369722
  85.3716885  84.7996877  36.6425739  87.9820790  70.0917526  38.8865703
  88.4789490  69.3387489  38.5666773  87.2107772  70.1281843  38.3208912
  95.8350548  75.7957892  40.5283995  95.8240424  76.6782607  40.1577928
  94.9667927  75.4429443  40.3338532  87.3433044  84.9437961  44.8886835
  88.0561016  85.5785426  44.8162736  86.8523073  85.0401827  44.0726837
  89.0650571  78.8489214  36.4604126  88.1306850  78.9690676  36.2908831
  89.2427239  77.9461680  36.1964136  84.5655759  72.2334909  38.6137388
  84.1953547  71.6805950  39.3018293  85.0614852  71.6293043  38.0612388
  92.4523122  74.6906533  36.9954161  92.9183575  75.5234524  36.9214463
  92.9030623  74.2251514  37.6999419  82.3944958  82.6932404  45.7092406
  83.0954417  83.3268887  45.8621800  81.9240073  83.0347136  44.9488045
  90.5199353  81.0350354  33.9940313  90.7959197  80.9206949  34.9034187
  89.6503852  80.6367839  33.9552486  90.4239785  67.0587120  41.0345062
  89.5102865  67.2891347  41.2027269  90.8532887  67.1425564  41.8859094
  90.1946244  75.2477012  43.5344956  89.5417694  75.4952919  42.8797409
  90.5726624  74.4341150  43.2007433  87.1553417  85.2836705  37.6373126
  87.3375812  84.4658361  38.1000879  87.9786404  85.5004397  37.1998016
  87.4895583  84.2104890  34.8988175  88.0183349  83.6997345  34.2858337
  87.7523803  83.8947420  35.7633708  86.2433817  75.9896823  50.0210993
  85.5674454  75.8890952  50.6913368  87.0661451  75.8336037  50.4846990
  77.9912676  82.2268759  42.6423508  78.5766113  81.4812447  42.7751413
  77.7937514  82.5372716  43.5260172  80.8451331  85.2620007  37.6585951
  80.1761706  85.7466134  37.1749991  80.7064201  85.5089227  38.5729329
  72.5830330  74.7974360  41.3627951  72.6214430  74.2637950  42.1565070
  72.0770623  74.2709565  40.7438929  84.9856600  87.2963750  44.2568609
  85.5374908  87.4595372  45.0217694  85.3262793  87.8868188  43.5848634
  79.9621093  69.6438900  44.8590494  80.0262419  70.5053731  44.4467891
  79.8988213  69.0312902  44.1262852  79.4373365  71.7162033  48.5063528
  80.0645404  71.3339110  49.1201052  78.5801284  71.4976235  48.8719221
  89.8367474  82.1225008  50.1117263  90.3807378  82.7354966  49.6172218
  89.2554319  82.6804586  50.6284277  76.2138908  73.5238462  34.4381883
  76.5092349  72.6149140  34.3848937  75.3126944  73.5026201  34.1162885
  88.1224987  85.2445726  41.2432291  87.9976126  84.4435466  40.7343237
  88.7804078  85.7391919  40.7546261  79.7433155  71.5994458  40.4209431
  79.0219741  72.2130426  40.2816905  80.5326411  72.1352223  40.3426077
  90.1859895  83.0454746  42.8711841  89.2390231  82.9260097  42.7990168
  90.5342668  82.1577244  42.9538103  82.5459469  68.9348885  46.6950083
  83.0693870  69.1811181  47.4576393  82.3271802  69.7668920  46.2753221
  77.9426750  71.2052559  34.5621208  77.6139456  70.3249938  34.3796314
  78.2966120  71.1500228  35.4497597  87.1906328  82.8407462  39.0716194
  87.0431291  81.9124170  39.2523764  88.0159822  82.8627553  38.5873269
  81.0568573  71.4925529  34.9296686  81.3964645  72.0211450  34.2075294
  81.5040693  71.8305935  35.7055252  90.7940450  83.6636021  40.1581066
  91.7186998  83.4578882  40.0205517  90.6255754  83.4152422  41.0670408
  83.7512014  69.8762580  44.3799754  83.4108834  69.0770393  44.7820434
  83.0451020  70.1764291  43.8076587  84.4028485  66.9611892  42.8327077
  85.2254555  66.4872371  42.7105967  84.6466549  67.7402376  43.3325763
  83.0436720  69.9900151  33.1289978  83.7645082  70.3681404  32.6253695
  82.4202024  70.7089028  33.2324956  87.1867843  70.6945300  34.0648311
  87.4031457  71.5769938  33.7637139  86.7061910  70.3031513  33.3353953
  81.9267064  73.6531013  40.6419055  81.7811645  73.9671316  41.5343337
  81.4492268  74.2715913  40.0889954  83.7863447  70.6433561  40.6899945
  83.7725016  69.7474654  40.3532243  84.5035875  70.6504225  41.3238231
  85.6389578  71.0770901  42.7353072  85.3807356  71.9987972  42.7337403
  85.1074618  70.6801336  43.4253536  90.5835767  84.1821688  35.5143158
  90.7572644  83.6168111  34.7617010  91.0764658  84.9822583  35.3322648
  76.4012726  76.1936357  43.5806717  75.8566194  76.9696165  43.7126991
  77.2792076  76.5407162  43.4225838  83.1900343  69.5247941  35.9587515
  83.3116254  68.5964587  36.1578403  82.9002385  69.5386627  35.0465830
  86.0591533  67.2102852  39.0954235  86.0813230  67.2742185  38.1406214
  86.4759592  66.3707360  39.2894741  96.4375158  76.9458111  37.1333457
  96.8806304  76.1965436  36.7352581  95.5601668  76.9368248  36.7507189
  91.5710939  83.4988453  32.6140056  92.2661844  84.1195145  32.8327371
  91.9134089  82.6483804  32.8892434  77.1878748  75.3206254  46.4736873
  76.4460484  75.4688889  47.0601504  76.8671492  75.5814519  45.6103623
  93.4702362  80.9488158  34.1427387  93.9953686  81.2875431  33.4176707
  93.3824715  80.0135174  33.9590521  85.1322411  84.8622232  46.2717263
  85.4409537  84.6171379  47.1439963  85.9297893  85.0668870  45.7836134
  85.1543023  87.0160142  38.5022640  84.7148013  86.5236520  39.1955497
  85.9051140  86.4733109  38.2614715  77.6335362  83.2071682  38.5047268
  78.4593382  82.9075454  38.1245912  77.2829414  82.4379305  38.9537057
  82.6016895  82.5598151  40.5744942  81.9796904  81.8968856  40.2747170
  83.2721762  82.5859283  39.8918589  75.8343967  81.1258009  39.4636202
  74.9975875  80.6980183  39.2820203  75.8067612  81.3190452  40.4006993
  82.6741423  71.0379939  50.1677448  82.7229578  71.9142061  49.7855217
  83.2163937  70.4957332  49.5949091  93.1596268  81.5821062  49.4478585
  92.3691812  81.5645201  48.9083084  92.9229623  82.1209356  50.2027621
  93.2794143  78.4313528  46.7611313  93.3292148  78.2663536  47.7026836
  93.1708067  77.5640787  46.3709194  82.1630402  81.1102074  34.0503402
  82.3118522  81.7937538  33.3970075  82.9696845  81.0907164  34.5652858
  90.5697906  74.4144456  48.0770620  91.4707768  74.2750921  47.7854618
  90.6445880  74.5798911  49.0168797  84.9040711  71.7911311  46.9223806
  84.0344020  72.0844877  46.6506395  85.1400191  72.3751756  47.6431070
  94.7812340  80.8510470  47.0053335  94.4897148  81.2140450  47.8416796
  94.1684471  80.1377478  46.8266667  95.9808022  78.4163350  39.5255905
  96.8154914  78.8553154  39.6893465  96.1167151  77.9402003  38.7064151
  93.0299528  75.9743084  45.4733393  93.5053650  76.1670731  44.6652244
  92.1065094  76.0302270  45.2276776  79.9183035  77.1367252  35.0564471
  79.6729077  76.2329582  35.2544681  80.0878949  77.1384402  34.1143949
  87.6079745  68.0090928  44.4389227  88.1261689  68.7451955  44.1135715
  87.2534878  68.3154921  45.2735986  79.1878682  72.8695609  32.5550633
  78.4947927  72.9439964  31.8990669  78.9430434  72.1055953  33.0772149
  87.8592339  64.4291211  39.9590123  88.1394093  63.7614400  40.5850550
  88.6442946  64.6220306  39.4464787  85.6625807  83.6050204  31.5215150
  85.0899775  84.2240392  31.0685621  86.2358601  84.1549566  32.0555072
  91.7301197  72.8508845  43.7061698  92.6818620  72.9506942  43.7273922
  91.5604648  72.0587113  44.2159783  89.7515577  69.9364428  43.8921099
  89.1565509  70.2169440  43.1967588  89.4665273  70.4258329  44.6637840
  88.8823067  83.8887355  32.6523732  89.8153740  83.8232916  32.8556607
  88.7946280  84.7243621  32.1938265  91.5111084  83.2053225  29.6127679
  91.4324715  82.8713088  30.5063437  92.3320751  83.6974993  29.6119152
  94.2089275  76.0714964  42.8203998  94.1765595  75.1330965  43.0063682
  94.8189899  76.1499001  42.0869823  86.0472606  74.9411017  28.8631202
  86.9931711  74.8117225  28.9319620  85.6686851  74.2025679  29.3400630
  94.3583764  72.8626008  42.8662281  93.8422812  72.0784464  42.6792210
  95.2423712  72.5344724  43.0308801  92.0194491  66.6067023  38.8258094
  91.8219312  66.2982111  39.7101426  92.6294196  67.3328662  38.9556024
 100.0265825  77.1330971  41.9610035 100.7569213  76.8716259  42.5217738
  99.4172770  76.3959693  42.0012103  98.1081122  75.2738834  42.5584486
  97.3814286  75.1394799  41.9500978  97.6928409  75.5815662  43.3641204
  85.9311299  78.9928763  50.3231859  86.8514308  79.1707362  50.5171906
  85.8960882  78.0484809  50.1711558  84.2315523  72.8660994  28.7986087
  83.3246979  72.5694106  28.8748801  84.5091504  72.5690812  27.9320374
  75.1493464  74.1867357  39.2485134  74.8296248  73.3332665  38.9559508
  74.6026892  74.4015935  40.0043101  78.9273371  76.9029798  42.9654640
  79.1459381  77.8346906  42.9842674  79.3399145  76.5437772  43.7509444
  85.8477589  67.4097883  34.9530329  85.0378317  67.0644968  35.3285575
  86.5362006  67.1005427  35.5417940  87.7768137  66.4875930  36.5754625
  88.3299176  66.9071383  37.2344648  88.0138224  65.5611678  36.6177581
  83.8001236  72.4763004  52.3557389  83.6997963  73.4257361  52.2869480
  83.5822778  72.1481243  51.4833459  83.0014308  69.7247929  28.9398067
  83.8633472  70.0502827  29.1993884  83.1864652  68.9379425  28.4271132
  75.0181724  77.8070268  41.2178255  74.3245195  77.3924221  40.7048210
  75.7654715  77.8490805  40.6211674  91.1546944  68.5976455  36.0833290
  90.5745613  69.2561259  35.7011342  90.8882877  67.7753800  35.6720707
  89.6050511  67.9981513  38.2854610  90.1050289  68.1098047  37.4768929
  90.2486119  67.6942566  38.9255418  83.6632506  75.9060143  51.1722451
  83.1799588  76.7060503  51.3786340  83.7493445  75.9168087  50.2189895
  76.9318466  77.7388522  39.0944270  76.9089154  77.8376210  38.1426153
  77.2419103  78.5853673  39.4161436  79.5905844  79.7964677  43.2090885
  80.5449097  79.7648620  43.1420816  79.3918368  79.3355301  44.0241111
  80.1805226  78.3665793  45.7761682  80.9998115  78.8609872  45.7996520
  80.4542034  77.4497761  45.7479250  89.9371822  70.7576546  35.1389638
  89.0497677  71.0426196  34.9209833  90.3525811  70.5970309  34.2916915
  93.2886358  70.7823067  38.8543977  94.0646748  71.2719519  39.1268594
  92.5634493  71.2081121  39.3115847  95.7258917  71.4950686  39.9117918
  96.3203408  71.2546422  39.2011226  95.7985501  70.7757816  40.5391454
  77.9456073  85.3384297  40.2261082  77.8110541  84.5784698  39.6599081
  77.5288135  86.0625197  39.7589871  89.0815036  80.5221220  29.2337658
  89.7850886  80.7271223  29.8495313  88.3577684  81.0897982  29.4986741
  89.9112846  76.2731082  35.3539928  89.8548047  76.7299633  34.5147560
  90.4641188  75.5121766  35.1762771  93.7217652  72.0620813  36.1790047
  93.4654586  71.6617449  37.0098255  93.0970520  72.7764607  36.0540187
  98.0329990  74.8016887  38.6861339  97.4729548  74.8710076  39.4592901
  97.4273493  74.6257871  37.9660835  81.1025199  86.2353614  40.4379525
  80.9857583  87.1799046  40.3358215  80.2817645  85.9327175  40.8265324
  90.9901733  80.9603749  31.2836118  91.8247337  80.5284948  31.1013593
  90.8286076  80.7885763  32.2113012  90.6447625  77.4635863  32.6492457
  90.5896429  77.2980134  31.7080901  90.0193681  78.1711896  32.8054647
  75.4340140  72.7003927  46.4753879  76.0799004  72.1902881  46.9641105
  75.2257291  73.4372609  47.0497305  87.9593532  79.7684775  51.9746020
  88.8284692  79.9425427  51.6132655  87.4800284  80.5879191  51.8521749
  83.9543751  66.9643972  32.2277776  83.9422421  67.9085812  32.3846046
  84.8467173  66.7814117  31.9337237  82.1279713  86.8881876  43.6535454
  83.0306959  86.9205486  43.9701949  81.9017083  85.9582327  43.6681789
  83.8833315  85.6412862  40.3145532  82.9328946  85.6414724  40.2009904
  84.1865801  84.8945597  39.7981567  87.7695870  63.5586748  36.4823712
  87.0028266  63.0045235  36.6280395  88.1806575  63.6308617  37.3437864
  79.7737631  69.8471544  50.5728894  80.6369093  69.4908349  50.7832218
  79.2003042  69.5085439  51.2604298  99.6186008  91.4773401  41.3791295
 100.2564418  91.3580148  40.6754635  99.5006851  92.4254245  41.4379247
  96.4275714  91.4300829  41.3152819  96.0894226  91.3141893  40.4273354
  97.2965483  91.0291994  41.2953825  92.2862530  93.2836305  37.3049710
  91.7227395  93.1926242  36.5365998  92.1714925  92.4636210  37.7852203
  96.9095497  92.5835680  47.2739025  96.8984138  92.1888479  46.4019528
  97.0716137  91.8501753  47.8672796  89.8326962  94.7787497  40.1433931
  90.6248254  94.4378321  39.7280230  90.0723612  94.8882472  41.0636084
  91.7917716  94.0396410  33.0151309  92.5648592  93.4925397  32.8764185
  92.1443115  94.9040659  33.2265771  93.6302759  95.3672792  46.2218209
  93.3392625  96.2718423  46.1064875  94.2659743  95.4089320  46.9362278
  94.5558965  92.7449641  42.8119568  95.1522538  92.5205663  42.0976531
  94.6133937  92.0034386  43.4145016  94.1283994  90.1989076  30.6469759
  94.3809515  89.6770597  29.8853222  93.1908553  90.0355222  30.7496443
  99.1727277  89.2024854  38.4544503  99.9590366  88.7844278  38.1034920
  99.4365981  90.1070947  38.6226151  99.3437354  94.6397705  33.1533159
  98.7083187  94.7132331  33.8654064  99.0134760  95.2291304  32.4752239
 104.5735704  89.1400088  39.3577481 105.3060876  88.5699304  39.5915311
 103.8175060  88.7521688  39.7983987  93.8480283  92.1017182  32.8494134
  93.7316541  91.4262085  33.5175219  93.9582543  91.6149556  32.0326287
  96.1911824  91.5627329  36.5540824  95.8270031  91.0357950  37.2653745
  97.0478939  91.1725798  36.3807309 102.0961124  82.8521662  43.8172090
 101.7644449  83.7217073  43.5933305 101.5006738  82.5357946  44.4966120
  95.8317311  86.5917229  31.5502172  95.9991713  87.4597465  31.9172643
  95.6414480  86.7544511  30.6263461  98.5892644  95.0534208  43.2168002
  98.2893367  95.9559247  43.1083810  98.2443703  94.7866391  44.0689155
  92.0405125  91.5048005  39.2504707  91.1155622  91.3724219  39.4582399
  92.2889538  92.2842224  39.7474649 101.9889788  87.5716748  40.8965440
 101.0806665  87.5032156  40.6024201 101.9377383  88.0488693  41.7247265
  95.8106531  89.0474886  32.5348839  95.6906157  89.4931937  33.3734319
  95.1159120  89.3960204  31.9762377  89.4013936  91.1481278  40.0848496
  89.5306317  91.4015757  40.9987908  88.7211388  91.7408986  39.7653151
  96.0630653  88.9906394  48.8400337  95.2863987  89.5500314  48.8303202
  96.7021216  89.4763177  49.3615207 103.8551434  85.7733186  42.6743314
 103.2125814  86.0665719  42.0283108 103.3506362  85.6586107  43.4796510
 101.5091598  89.5196360  33.3629173 102.4209454  89.7523746  33.1876871
 101.0001245  90.1033404  32.8004252  94.3177026  91.7991847  48.4018304
  95.0591710  92.3376891  48.1253128  93.6114011  92.4258136  48.5589856
  99.7932365  93.9420987  46.9990466 100.2015721  93.5003398  46.2545098
  99.0709627  93.3673615  47.2524658  96.1463435  88.8793594  44.3724023
  96.9924630  89.3033008  44.5158672  96.0862073  88.2227218  45.0662586
 100.1161180  94.5022178  40.7542754  99.4870042  94.6667892  40.0518822
  99.7286842  94.9163788  41.5253718  99.2962881  86.5397962  46.0305196
  99.0523812  87.2940023  45.4939472  99.5722811  86.9183310  46.8652443
 101.2501343  93.0836575  44.7082462 101.4618239  93.7268335  44.0316843
 101.2031092  92.2498891  44.2404392  98.8527572  85.6954395  41.6119034
  97.9912051  85.9935649  41.9035771  98.8790007  85.9124794  40.6800067
  95.6689142  94.2396586  38.0192840  96.1327487  94.5184289  37.2297462
  95.4045940  93.3380031  37.8365930  92.5613223  93.7868068  40.9572603
  93.1314580  94.2155336  40.3190087  93.1521335  93.5050652  41.6556788
  94.6058028  90.3619738  34.8282405  95.3082071  90.8140782  35.2956331
  94.2738656  89.7203557  35.4562298  93.0538389  88.9531495  49.2033614
  92.4237050  89.6347776  49.4369011  92.9474477  88.8414577  48.2586752
  88.3483362  88.6203291  40.1299538  87.5582416  88.8760820  39.6539649
  88.8394609  89.4351629  40.2351579  90.2998107  88.9847870  37.0883015
  89.5029270  89.0966565  37.6066511  90.0723699  89.3234523  36.2223905
  96.1303775  95.5092574  45.0365530  96.1948207  95.9712981  45.8723701
  95.4214699  94.8789938  45.1647839  86.6321065  88.8733782  42.5614529
  86.8829103  89.7580791  42.8272105  87.1680613  88.6938383  41.7889621
  92.3319132  83.2552261  51.5658865  91.9386078  82.7018459  52.2406509
  93.1485272  83.5662839  51.9565383  89.2981190  94.6936119  35.4772435
  89.8105710  95.4879369  35.6278000  89.9503903  93.9962410  35.4106036
  91.1076075  97.8101875  37.5595188  91.2842703  98.7319840  37.3716172
  91.9032908  97.4960295  37.9889568  95.2487093  84.6710140  49.1579122
  95.9896806  85.2717293  49.0783584  95.4805016  83.9287778  48.5997164
  90.3928431  89.8566507  47.4357351  90.2781946  88.9551764  47.7364450
  89.5372949  90.1030204  47.0842168  92.2307390  99.3280049  43.5605530
  92.7814815  99.1997113  42.7882524  91.3918866  99.6274938  43.2100423
  96.0274561  95.5931177  47.9049762  96.5602898  94.8319465  47.6749070
  95.4988642  95.3004829  48.6473916  99.1944256  80.6991243  43.4343403
  98.8508525  81.5892885  43.3582514  99.5623219  80.5092901  42.5712988
  87.2630107  93.0224773  36.2532006  88.1005329  93.4321782  36.0365713
  87.4408374  92.0824216  36.2232199  99.1594539  90.6899854  31.9415838
  98.6441162  91.4604459  32.1804226  98.8871847  90.0164990  32.5648900
  96.7441650  85.5349555  37.0001077  95.8883246  85.1456405  36.8206716
  97.1568602  85.6141516  36.1400862  98.2740796  83.0695898  41.3992637
  97.7705592  83.0326033  40.5860442  98.5671403  83.9788641  41.4589293
  94.5183682  83.1534628  40.4058818  95.3836679  82.9577436  40.0464708
  94.5861191  82.9244980  41.3328175  98.9480842  88.5626946  33.7675620
  98.6430977  88.8773095  34.6185763  99.9011284  88.6408366  33.8102953
  97.3927274  94.7217169  35.4168574  96.8648635  93.9869929  35.1041811
  96.8914776  95.4991846  35.1708542  92.1246001  85.3836836  37.7775185
  92.6989753  85.1612017  37.0448378  92.7116984  85.4525530  38.5303786
 101.1825579  91.2710563  38.5839562 101.6957460  91.9040554  39.0861271
 101.8326802  90.6711758  38.2182922  92.4515588  87.4141297  31.7971070
  91.6152901  87.7515983  32.1180345  92.3120358  87.2790277  30.8598207
  94.4268669  82.2578085  36.5050255  93.7733081  81.9427102  35.8806869
  94.3849143  81.6353825  37.2310078  97.6606409  88.7460018  40.8297902
  96.7428971  88.9674965  40.6719590  98.0766553  88.8206329  39.9709610
  98.4441457  90.1451434  35.9600582  99.1913276  90.6572831  35.6507705
  98.7133047  89.8235487  36.8204976  96.7168107  92.6409975  32.9427537
  95.8079327  92.3569007  33.0400007  96.7463191  93.0609053  32.0830844
 100.8920294  87.1808550  37.9419372 100.1543051  86.6685936  38.2729614
 101.1447068  86.7408932  37.1302649 100.9931922  79.9584802  38.5361141
 101.2990798  79.0982166  38.2487056 101.7184526  80.5502422  38.3360135
  87.2856278  90.3615489  36.9242739  87.0880678  89.7684849  36.1993806
  86.7302942  90.0567699  37.6418678  95.2653001  90.2538595  39.0437332
  95.3201611  89.3012432  38.9679809  94.4544203  90.4098034  39.5278631
  93.2045361  88.8715655  36.8027711  92.3913227  89.1709825  37.2092903
  93.7004356  88.4771344  37.5202193  98.8019573  89.3357479  45.6342605
  99.1568961  89.5628953  46.4937071  99.4491704  89.6675856  45.0119860
  92.6959436  86.4434010  42.4188946  93.3358815  86.3022770  41.7211909
  91.8636967  86.1568524  42.0427548  93.4719740  95.7436441  38.5323938
  94.2660338  95.2486761  38.3306513  92.7611432  95.2154304  38.1691644
  89.7802503  89.8879523  34.6083691  88.8500092  89.8263978  34.8253653
  89.8759975  89.3655475  33.8120332  89.6988052  86.4134335  37.1961933
  89.9594870  87.3279669  37.0871093  90.5205225  85.9458778  37.3458546
  91.1712978  87.8272093  44.3660757  91.8436031  87.6189455  43.7173406
  90.3442764  87.6294179  43.9265990  97.0738550  84.4534034  46.3826418
  96.4266465  85.1523983  46.2890895  97.8439565  84.8870177  46.7502666
  97.2502684  92.2914798  44.4423238  98.1794744  92.4425958  44.2692205
  96.8293714  92.3798819  43.5871884  96.0491016  96.3165463  42.2121775
  95.9102102  95.9484247  43.0847714  95.2605612  96.8313102  42.0405733
  97.5996231  95.6947066  39.6010613  97.2646064  95.6547836  40.4968263
  97.1000177  95.0291781  39.1281023  91.5740475  91.1014696  45.1263194
  91.4360273  90.3694934  45.7274733  92.4845399  91.0123596  44.8447382
  94.2022776  90.8134655  44.6146874  94.9122394  90.1727847  44.5733492
  94.1592084  91.0647550  45.5373055  92.9151710  87.7999873  46.4342514
  92.3789067  87.3490611  47.0864110  92.3268418  87.9345782  45.6912978
  92.3253969  87.2588524  28.9968977  91.4483435  87.1377325  28.6331224
  92.8011722  86.4674603  28.7447866  83.8456109  92.0465684  39.0910484
  84.5327149  91.7327414  38.5031500  83.6904238  92.9507049  38.8177736
  88.6490831  86.9355880  43.5195508  88.5649020  86.3281550  42.7845918
  87.8273537  87.4264899  43.5205004  98.8214545  85.4209444  38.8865703
  99.3183244  84.6679406  38.5666773  98.0501526  85.4573761  38.3208912
  99.9044326  94.1781131  36.4604126  98.9700604  94.2982594  36.2908831
 100.0820994  93.2753598  36.1964136  95.4049514  87.5626827  38.6137388
  95.0347301  87.0097867  39.3018293  95.9008606  86.9584960  38.0612388
 103.2916877  90.0198451  36.9954161 103.7577329  90.8526442  36.9214463
 103.7424377  89.5543432  37.6999419  93.2338712  98.0224322  45.7092406
  93.9348172  98.6560805  45.8621800  92.7633827  98.3639054  44.9488045
 101.2633540  82.3879038  41.0345062 100.3496619  82.6183264  41.2027269
 101.6926641  82.4717482  41.8859094 101.0339998  90.5768929  43.5344956
 100.3811448  90.8244837  42.8797409 101.4120378  89.7633068  43.2007433
  97.0827571  91.3188741  50.0210993  96.4068208  91.2182870  50.6913368
  97.9055205  91.1627954  50.4846990  88.8306430  97.5560677  42.6423508
  89.4159867  96.8104365  42.7751413  88.6331269  97.8664634  43.5260172
  91.6845085 100.5911924  37.6585951  91.0155461 101.0758052  37.1749991
  91.5457955 100.8381145  38.5729329  83.4224085  90.1266277  41.3627951
  83.4608184  89.5929868  42.1565070  82.9164378  89.6001483  40.7438929
  90.8014847  84.9730818  44.8590494  90.8656174  85.8345649  44.4467891
  90.7381967  84.3604819  44.1262852  90.2767120  87.0453950  48.5063528
  90.9039159  86.6631028  49.1201052  89.4195039  86.8268152  48.8719221
  87.0532663  88.8530379  34.4381883  87.3486104  87.9441058  34.3848937
  86.1520698  88.8318119  34.1162885  90.5826910  86.9286376  40.4209431
  89.8613495  87.5422344  40.2816905  91.3720165  87.4644141  40.3426077
  93.3853223  84.2640803  46.6950083  93.9087625  84.5103099  47.4576393
  93.1665556  85.0960837  46.2753221  88.7820504  86.5344477  34.5621208
  88.4533210  85.6541856  34.3796314  89.1359875  86.4792146  35.4497597
  91.8962327  86.8217447  34.9296686  92.2358400  87.3503368  34.2075294
  92.3434448  87.1597853  35.7055252  94.5905768  85.2054498  44.3799754
  94.2502588  84.4062311  44.7820434  93.8844774  85.5056208  43.8076587
  95.2422240  82.2903810  42.8327077  96.0648309  81.8164288  42.7105967
  95.4860303  83.0694294  43.3325763  93.8830474  85.3192068  33.1289978
  94.6038837  85.6973321  32.6253695  93.2595779  86.0380945  33.2324956
  98.0261597  86.0237217  34.0648311  98.2425212  86.9061855  33.7637139
  97.5455664  85.6323431  33.3353953  92.7660819  88.9822931  40.6419055
  92.6205399  89.2963234  41.5343337  92.2886022  89.6007831  40.0889954
  94.6257202  85.9725479  40.6899945  94.6118770  85.0766572  40.3532243
  95.3429630  85.9796142  41.3238231  96.4783332  86.4062819  42.7353072
  96.2201110  87.3279890  42.7337403  95.9468373  86.0093253  43.4253536
  87.2406481  91.5228275  43.5806717  86.6959949  92.2988083  43.7126991
  88.1185831  91.8699080  43.4225838  94.0294097  84.8539859  35.9587515
  94.1510009  83.9256505  36.1578403  93.7396140  84.8678545  35.0465830
  96.8985288  82.5394769  39.0954235  96.9206985  82.6034102  38.1406214
  97.3153347  81.6999278  39.2894741  88.0272503  90.6498171  46.4736873
  87.2854239  90.7980807  47.0601504  87.7065247  90.9106437  45.6103623
  88.4729116  98.5363600  38.5047268  89.2987136  98.2367372  38.1245912
  88.1223168  97.7671223  38.9537057  93.4410650  97.8890068  40.5744942
  92.8190659  97.2260773  40.2747170  94.1115516  97.9151200  39.8918589
  86.6737721  96.4549927  39.4636202  85.8369630  96.0272101  39.2820203
  86.6461367  96.6482370  40.4006993  93.5135177  86.3671856  50.1677448
  93.5623332  87.2433979  49.7855217  94.0557691  85.8249249  49.5949091
  93.0024156  96.4393992  34.0503402  93.1512277  97.1229456  33.3970075
  93.8090600  96.4199082  34.5652858 101.4091660  89.7436374  48.0770620
 102.3101523  89.6042839  47.7854618 101.4839635  89.9090829  49.0168797
  95.7434465  87.1203229  46.9223806  94.8737775  87.4136795  46.6506395
  95.9793946  87.7043674  47.6431070 103.8693283  91.3035002  45.4733393
 104.3447404  91.4962648  44.6652244 102.9458848  91.3594188  45.2276776
  90.7576789  92.4659169  35.0564471  90.5122831  91.5621499  35.2544681
  90.9272704  92.4676320  34.1143949  98.4473499  83.3382846  44.4389227
  98.9655443  84.0743873  44.1135715  98.0928632  83.6446839  45.2735986
  90.0272437  88.1987527  32.5550633  89.3341682  88.2731882  31.8990669
  89.7824189  87.4347870  33.0772149  98.6986093  79.7583128  39.9590123
  98.9787847  79.0906317  40.5850550  99.4836700  79.9512224  39.4464787
 102.5694952  88.1800762  43.7061698 103.5212375  88.2798860  43.7273922
 102.3998402  87.3879031  44.2159783 100.5909331  85.2656345  43.8921099
  99.9959263  85.5461358  43.1967588 100.3059028  85.7550246  44.6637840
  96.8866360  90.2702935  28.8631202  97.8325465  90.1409143  28.9319620
  96.5080605  89.5317597  29.3400630 105.1977518  88.1917925  42.8662281
 104.6816567  87.4076382  42.6792210 106.0817467  87.8636642  43.0308801
 102.8588245  81.9358941  38.8258094 102.6613066  81.6274029  39.7101426
 103.4687951  82.6620580  38.9556024  96.7705053  94.3220681  50.3231859
  97.6908062  94.4999280  50.5171906  96.7354636  93.3776726  50.1711558
  95.0709278  88.1952911  28.7986087  94.1640733  87.8986024  28.8748801
  95.3485259  87.8982729  27.9320374  85.9887218  89.5159275  39.2485134
  85.6690002  88.6624583  38.9559508  85.4420646  89.7307853  40.0043101
  89.7667126  92.2321716  42.9654640  89.9853135  93.1638823  42.9842674
  90.1792899  91.8729690  43.7509444  96.6871343  82.7389801  34.9530329
  95.8772072  82.3936886  35.3285575  97.3755760  82.4297345  35.5417940
  98.6161892  81.8167848  36.5754625  99.1692930  82.2363301  37.2344648
  98.8531978  80.8903596  36.6177581  94.6394991  87.8054921  52.3557389
  94.5391718  88.7549278  52.2869480  94.4216533  87.4773160  51.4833459
  93.8408062  85.0539846  28.9398067  94.7027226  85.3794745  29.1993884
  94.0258406  84.2671342  28.4271132  85.8575478  93.1362186  41.2178255
  85.1638949  92.7216139  40.7048210  86.6048469  93.1782723  40.6211674
 101.9940699  83.9268373  36.0833290 101.4139368  84.5853177  35.7011342
 101.7276631  83.1045718  35.6720707 100.4444265  83.3273431  38.2854610
 100.9444043  83.4389965  37.4768929 101.0879873  83.0234483  38.9255418
  94.5026261  91.2352060  51.1722451  94.0193343  92.0352420  51.3786340
  94.5887200  91.2460005  50.2189895  87.7712221  93.0680440  39.0944270
  87.7482909  93.1668127  38.1426153  88.0812857  93.9145591  39.4161436
  90.4299598  95.1256595  43.2090885  91.3842852  95.0940537  43.1420816
  90.2312122  94.6647219  44.0241111  91.0198981  93.6957711  45.7761682
  91.8391870  94.1901790  45.7996520  91.2935788  92.7789679  45.7479250
 100.7765577  86.0868463  35.1389638  99.8891432  86.3718114  34.9209833
 101.1919566  85.9262227  34.2916915 104.1280113  86.1114984  38.8543977
 104.9040503  86.6011437  39.1268594 103.4028247  86.5373038  39.3115847
  88.7849827 100.6676214  40.2261082  88.6504295  99.9076615  39.6599081
  88.3681889 101.3917114  39.7589871 100.7506600  91.6022999  35.3539928
 100.6941802  92.0591551  34.5147560 101.3034943  90.8413684  35.1762771
 104.5611406  87.3912731  36.1790047 104.3048341  86.9909367  37.0098255
 103.9364274  88.1056525  36.0540187 101.4841380  92.7927780  32.6492457
 101.4290184  92.6272052  31.7080901 100.8587435  93.5003813  32.8054647
  86.2733895  88.0295845  46.4753879  86.9192758  87.5194799  46.9641105
  86.0651046  88.7664526  47.0497305  94.7937505  82.2935889  32.2277776
  94.7816175  83.2377729  32.3846046  95.6860927  82.1106035  31.9337237
  98.6089625  78.8878666  36.4823712  97.8422021  78.3337153  36.6280395
  99.0200330  78.9600535  37.3437864  90.6131386  85.1763462  50.5728894
  91.4762847  84.8200267  50.7832218  90.0396796  84.8377357  51.2604298
  39.4333987  -4.2724674  32.9463515  39.1423853  -3.3679043  32.8310182
  40.0690972  -4.2308146  33.6607585  44.3923873  -4.5863258  29.9413309
  44.0924596  -3.6838219  29.8329116  44.0474932  -4.8531075  30.7934462
  45.9192409  -5.1375288  27.4788061  45.2901271  -4.9729574  26.7764129
  45.5318071  -4.7233678  28.2499025  48.1678400  -3.6788936  29.6050126
  48.9895844  -4.0808748  29.3232807  48.1640803  -3.7820701  30.5566241
  41.9335004  -4.1304892  31.7610836  41.9979436  -3.6684485  32.5969008
  41.2245927  -4.7607527  31.8893146  43.2751498  -1.8413218  35.7590159
  42.8315352  -2.6276840  35.4411063  43.9368711  -1.6534068  35.0934049
  38.0338619  -0.3117417  30.2850837  38.5846044  -0.4400353  29.5127831
  37.1950095  -0.0122528  29.9345730  45.3732736  -1.5610418  33.7871560
  45.3551211  -0.7401537  33.2951829  46.2952656  -1.6856343  34.0121701
  41.8305790  -4.0466289  34.6295068  42.3634127  -4.8078001  34.3994376
  41.3019871  -4.3392637  35.3719223  46.1951543  -1.5504405  24.3713829
  46.4874517  -0.9899348  23.6526195  46.7050163  -1.2575844  25.1266988
  44.0945813  -1.5142929  29.6081613  44.1482836  -0.9451993  30.3759329
  43.2260595  -1.3441044  29.2435650  46.2848577  -4.9214580  36.1822278
  46.1334083  -5.1504028  35.2652362  46.2753256  -3.9643979  36.1953623
  41.8522245  -3.3232003  28.9367082  41.7133330  -3.6913219  29.8093020
  41.0636841  -2.8084363  28.7651040  47.9940783  -1.8895458  34.2598760
  47.9353329  -2.5736237  33.5929343  48.3960302  -1.1476468  33.8079386
  37.0131482   4.9266456  27.0532479  37.2528080   5.5584980  27.7311497
  36.1700679   4.5754496  27.3397838  41.5259344   0.7345579  29.4573983
  41.4529515   1.5400550  29.9693287  41.0836737   0.9337545  28.6322004
  43.9858027   0.6332413  31.6132141  44.6986000   1.2679878  31.5408043
  43.4948056   0.7296279  30.7972143  39.0369941  -1.6173144  32.4337712
  39.7379400  -0.9836661  32.5867106  38.5665056  -1.2758412  31.6733352
  43.7978401   0.9731157  24.3618433  43.9800795   0.1552813  24.8246185
  44.6211387   1.1898849  23.9243323  34.6337659  -2.0836789  29.3668815
  35.2191096  -2.8293101  29.4996719  34.4362497  -1.7732832  30.2505479
  41.6281583   2.9858202  30.9813916  42.1799891   3.1489824  31.7463001
  41.9687776   3.5762640  30.3093941  46.4792457  -2.1880540  36.8362570
  47.0232361  -1.5750582  36.3417525  45.8979302  -1.6300962  37.3529583
  44.7649970   0.9340178  27.9677598  44.6401110   0.1329918  27.4588543
  45.4229061   1.4286371  27.4791568  46.8284878  -1.2650802  29.5957148
  45.8815214  -1.3845451  29.5235475  47.1767652  -2.1528304  29.6783409
  43.8331312  -1.4698086  25.7961500  43.6856274  -2.3981379  25.9769070
  44.6584805  -1.4477995  25.3118575  47.4365434  -0.6469527  26.8826373
  48.3611981  -0.8526666  26.7450824  47.2680737  -0.8953126  27.7915714
  41.7747394   0.5516684  32.9962570  42.0834521   0.3065831  33.8685270
  42.5722876   0.7563322  32.5081440  41.7968006   2.7054593  25.2267947
  41.3572996   2.2130972  25.9200803  42.5476123   2.1627561  24.9860022
  39.2441878  -1.7507397  27.2990248  38.6221888  -2.4136692  26.9992476
  39.9146745  -1.7246266  26.6163896  49.8021252  -2.7284486  36.1723891
  49.0116795  -2.7460347  35.6328391  49.5654606  -2.1896193  36.9272928
  42.5736282  -5.3176785  37.0477166  43.4939291  -5.1398186  37.2417212
  42.5385865  -6.2620739  36.8956865  36.2330827  -4.5140871  29.9336191
  37.1874081  -4.5456929  29.8666123  36.0343351  -4.9750247  30.7486417
  36.8230209  -5.9439755  32.5006989  37.6423098  -5.4495676  32.5241826
  37.0967017  -6.8607787  32.4724556  37.7450182   1.9248066  27.1624832
  37.6282566   2.8693498  27.0603522  36.9242628   1.6221627  27.5510631
  44.6018516  -4.5420773  38.6991327  45.4709675  -4.3680121  38.3377961
  44.1225267  -3.7226357  38.5767056  38.7704696   2.5776328  30.3780760
  39.6731943   2.6099938  30.6947255  38.5442066   1.6476779  30.3927096
  40.5258298   1.3307314  27.0390839  39.5753929   1.3309176  26.9255211
  40.8290784   0.5840049  26.5226873  56.2610992   7.1667852  28.1036601
  56.8989401   7.0474600  27.3999941  56.1431834   8.1148696  28.1624553
  53.0700698   7.1195281  28.0398126  52.7319209   7.0036345  27.1518661
  53.9390466   6.7186446  28.0199132  48.9287513   8.9730757  24.0295017
  48.3652379   8.8820694  23.2611305  48.8139909   8.1530661  24.5097509
  53.5520481   8.2730132  33.9984331  53.5409122   7.8782931  33.1264835
  53.7141120   7.5396205  34.5918103  46.4751945  10.4681949  26.8679237
  47.2673237  10.1272773  26.4525537  46.7148596  10.5776924  27.7881391
  54.5087072  12.6401725  19.3409482  53.8575052  13.2255805  18.9543496
  55.3031435  13.1707920  19.4004519  48.4342699   9.7290862  19.7396616
  49.2073575   9.1819849  19.6009492  48.7868098  10.5935111  19.9511078
  50.2727742  11.0567244  32.9463515  49.9817608  11.9612875  32.8310182
  50.9084726  11.0983772  33.6607585  51.1983949   8.4344093  29.5364875
  51.7947521   8.2100115  28.8221838  51.2558920   7.6928838  30.1390323
  55.8152260   4.8919306  25.1789809  56.6015349   4.4738730  24.8280226
  56.0790964   5.7965399  25.3471458  55.9862337  10.3292157  19.8778466
  55.3508170  10.4026783  20.5899371  55.6559744  10.9185755  19.1997545
  61.2160687   4.8294540  26.0822788  61.9485859   4.2593756  26.3160617
  60.4600043   4.4416140  26.5229293  50.4905266   7.7911634  19.5739441
  50.3741524   7.1156537  20.2420525  50.6007526   7.3044008  18.7571594
  52.8336807   7.2521781  23.2786130  52.4695014   6.7252402  23.9899052
  53.6903923   6.8620250  23.1052616  55.2317627  10.7428660  29.9413309
  54.9318350  11.6453698  29.8329116  54.8868687  10.4760843  30.7934462
  48.6830108   7.1942456  25.9750014  47.7580605   7.0618671  26.1827705
  48.9314522   7.9736676  26.4719956  58.6314771   3.2611200  27.6210746
  57.7231648   3.1926608  27.3269507  58.5802367   3.7383145  28.4492572
  52.4531515   4.7369338  19.2594146  52.3331140   5.1826389  20.0979626
  51.7584103   5.0854656  18.7007684  46.0438920   6.8375730  26.8093803
  46.1731301   7.0910209  27.7233214  45.3636371   7.4303438  26.4898458
  50.2138407  17.5072980  22.9084277  50.1362436  18.4580805  22.9872757
  49.6100050  17.1618852  23.5659203  52.7055637   4.6800845  35.5645644
  51.9288971   5.2394766  35.5548508  53.3446200   5.1657628  36.0860514
  60.4976417   1.4627638  29.3988620  59.8550797   1.7560171  28.7528415
  59.9931346   1.3480559  30.2041817  58.1516581   5.2090811  20.0874480
  59.0634437   5.4418198  19.9122177  57.6426228   5.7927856  19.5249558
  50.9602009   7.4886299  35.1263611  51.7016693   8.0271343  34.8498434
  50.2538994   8.1152588  35.2835162  56.4357349   9.6315439  33.7235772
  56.8440705   9.1897850  32.9790405  55.7134610   9.0568067  33.9769965
  52.7888419   4.5688046  31.0969329  53.6349614   4.9927460  31.2403978
  52.7287056   3.9121670  31.7907892  56.7586163  10.1916630  27.4788061
  56.1295026  10.3562344  26.7764129  56.3711825  10.6058239  28.2499025
  60.6375395  11.1271068  24.8332425  59.9526433  11.5069969  24.2829458
  60.7219244  11.7366394  25.5664373  55.9387864   2.2292414  32.7550503
  55.6948796   2.9834475  32.2184778  56.2147794   2.6077762  33.5897750
  57.8926327   8.7731027  31.4327768  58.1043222   9.4162787  30.7562149
  57.8456075   7.9393343  30.9649698  55.4952556   1.3848847  28.3364340
  54.6337035   1.6830101  28.6281078  55.5214990   1.6019246  27.4045373
  52.3114125   9.9291038  24.7438146  52.7752471  10.2078741  23.9542769
  52.0470923   9.0274483  24.5611237  49.2038206   9.4762519  27.6817909
  49.7739563   9.9049788  27.0435394  49.7946318   9.1945104  28.3802095
  51.2483011   6.0514190  21.5527711  51.9507054   6.5035234  22.0201638
  50.9163640   5.4098009  22.1807604  49.6963373   4.6425947  35.9278921
  49.0662033   5.3242228  36.1614318  49.5899461   4.5309029  34.9832059
  44.9908345   4.3097743  26.8544845  44.2007399   4.5655272  26.3784955
  45.4819592   5.1246081  26.9596885  59.0072155  11.6502982  29.6050126
  59.8289598  11.2483169  29.3232807  59.0034557  11.5471216  30.5566241
  46.9423090   4.6742322  23.8128322  46.1454254   4.7861016  24.3311817
  46.7148683   5.0128974  22.9469212  52.7728758  11.1987025  31.7610836
  52.8373191  11.6607433  32.5969008  52.0639682  10.5684390  31.8893146
  43.2746048   4.5628233  29.2859836  43.5254086   5.4475243  29.5517412
  43.8105596   4.3832835  28.5134927  67.0978148   7.9941731  25.9535097
  66.3441856   7.4249129  25.7979102  67.2325689   7.9604395  26.9005732
  52.4876776  12.8655133  21.6289817  52.3522451  13.7106669  22.0574664
  53.0286588  13.0674411  20.8655750  48.9744115  -1.0553287  38.2904172
  48.5811061  -1.6087089  38.9651816  49.7910256  -0.7442709  38.6810689
  45.9406173  10.3830571  22.2017742  46.4530694  11.1773821  22.3523306
  46.5928886   9.6856861  22.1351343  47.7501058  13.4996327  24.2840495
  47.9267686  14.4214292  24.0961479  48.5457891  13.1854746  24.7134875
  51.8912076   0.3604592  35.8824428  52.6321790   0.9611745  35.8028891
  52.1229999  -0.3817770  35.3242471  47.0353414   5.5460959  34.1602658
  46.9206929   4.6446216  34.4609757  46.1797932   5.7924656  33.8087475
  54.1145252  13.4878699  35.7590159  53.6709106  12.7015078  35.4411063
  54.7762466  13.6757850  35.0934049  48.8732373  15.0174501  30.2850837
  49.4239798  14.8891564  29.5127831  48.0343849  15.3169390  29.9345730
  52.6699544  11.2825629  34.6295068  53.2027881  10.5213917  34.3994376
  52.1413625  10.9899281  35.3719223  43.9055090   8.7119225  22.9777312
  44.7430312   9.1216234  22.7611020  44.0833358   7.7718667  22.9477506
  55.8019522   6.3794306  18.6661145  55.2866145   7.1498911  18.9049533
  55.5296830   5.7059442  19.2894207  53.3866633   1.2244007  23.7246383
  52.5308229   0.8350857  23.5452022  53.7993585   1.3035968  22.8646169
  54.9165780  -1.2409650  28.1237943  54.4130575  -1.2779515  27.3105749
  55.2096387  -0.3316907  28.1834600  51.1608666  -1.1570920  27.1304125
  52.0261662  -1.3528112  26.7710014  51.2286174  -1.3860569  28.0573482
  60.7753796   9.1326661  20.6014319  59.9983239   8.7937820  20.1569481
  61.4545277   9.1379284  19.9269284  55.5905825   4.2521398  20.4920926
  55.2855961   4.5667547  21.3431069  56.5436267   4.3302818  20.5348259
  54.0352257  10.4111621  22.1413880  53.5073619   9.6764381  21.8287118
  53.5339760  11.1886298  21.8953849  59.0145103   8.6060642  27.2580927
  58.3568777   9.2959903  27.3461055  59.8185502   8.9957074  27.6014913
  48.7670985   1.0731288  24.5020492  49.3414737   0.8506469  23.7693685
  49.3541967   1.1419982  25.2549093  57.8250562   6.9605015  25.3084868
  58.3382444   7.5935006  25.8106578  58.4751786   6.3606210  24.9428228
  51.0693652  -2.0527463  23.2295561  50.4158065  -2.3678446  22.6052176
  51.0274126  -2.6751723  23.9555384  55.0872936  16.9389339  18.0645539
  54.4134635  17.2421036  18.6730497  55.4738758  17.7418419  17.7150997
  54.3031393   4.4354470  27.5543209  53.3853954   4.6569417  27.3964897
  54.7191536   4.5100781  26.6954916  55.0866440   5.8345886  22.6845889
  55.8338259   6.3467283  22.3753011  55.3558030   5.5129938  23.5450283
  53.3593091   8.3304426  19.6672843  52.4504310   8.0463459  19.7645313
  53.3888174   8.7503505  18.8076150  58.5912358  11.9411016  23.4364011
  58.1374685  11.1001926  23.4929201  57.9606325  12.5772414  23.7738791
  57.5345278   2.8703002  24.6664678  56.7968034   2.3580388  24.9974921
  57.7872051   2.4303384  23.8547955  57.0345297  13.7787513  24.3713829
  57.3268272  14.3392570  23.6526195  57.5443918  14.0716074  25.1266988
  43.9281261   6.0509941  23.6488046  43.7305661   5.4579301  22.9239112
  43.3727925   5.7462151  24.3663984  51.9077985   5.9433047  25.7682639
  51.9626594   4.9906883  25.6925115  51.0969187   6.0992486  26.2523937
  53.0569178   9.8713170  17.0060922  52.6188608   9.1549029  16.5466559
  53.7979619  10.0989285  16.4446013  49.8470345   4.5610107  23.5273018
  49.0338210   4.8604277  23.9338210  50.3429339   4.1665796  24.2447500
  51.9978922  14.5567864  25.4607282  51.9555101  14.7828710  24.5315814
  52.9141621  14.3231238  25.6093083  55.4444556   5.0251931  32.3587912
  55.7993944   5.2523404  33.2182377  56.0916688   5.3570308  31.7365167
  61.1742293   8.1470367  23.0637241  61.0360192   8.3371963  22.1358430
  60.8178512   8.9089750  23.5205292  49.3384419   2.1328462  29.1434253
  49.9783799   1.9917221  28.4457216  48.5061950   1.8462976  28.7672855
  61.2011673  10.2146894  28.0748512  61.6348180  10.1222183  28.9231566
  61.9143254  10.1904395  27.4368528  50.1144723  11.4330893  25.2569245
  50.9085322  10.9381213  25.0551820  49.4036416  10.9048756  24.8936951
  54.9339568  13.8148988  29.6081613  54.9876590  14.3839925  30.3759329
  54.0654349  13.9850873  29.2435650  46.4227487   5.5773975  21.3328998
  45.4925075   5.5158430  21.5498960  46.5184959   5.0549927  20.5365639
  46.3413036   2.1028787  23.9207239  46.6019853   3.0174121  23.8116400
  47.1630208   1.6353230  24.0703852  47.8137961   3.5166545  31.0906064
  48.4861015   3.3083907  30.4418713  46.9867748   3.3188631  30.6511296
  62.0627222  10.2570595  30.6081397  62.2563112  11.1616405  30.8540672
  61.9627841   9.7978014  31.4419982  53.7163533   0.1428485  33.1071725
  53.0691448   0.8418435  33.0136201  54.4864549   0.5764629  33.4747973
  57.1242331  10.4077338  36.1822278  56.9727837  10.1787889  35.2652362
  57.1147011  11.3647939  36.1953623  53.8927667   7.9809250  31.1668544
  54.8219727   8.1320410  30.9937512  53.4718697   8.0693271  30.3117191
  52.6915999  12.0059915  28.9367082  52.5527085  11.6378699  29.8093020
  51.9030595  12.5207554  28.7651040  53.2864151  17.1069011  20.2792619
  53.4615907  16.6357054  21.0938241  52.5996939  17.7334777  20.5073879
  54.2421214  11.3841517  26.3255920  53.9071047  11.3442287  27.2213570
  53.7425160  10.7186233  25.8526330  48.2165458   6.7909147  31.8508501
  48.0785256   6.0589386  32.4520040  49.1270382   6.7018048  31.5692689
  57.1780406   8.7297552  16.5992980  56.5609577   8.0044380  16.5026032
  56.7096895   9.4906912  16.2560054  50.8447759   6.5029107  31.3392181
  51.5547378   5.8622299  31.2978799  50.8017067   6.7542002  32.2618361
  58.8334538  13.4396460  34.2598760  58.7747084  12.7555680  33.5929343
  59.2354056  14.1815450  33.8079386  49.5576693   3.4894325  33.1587820
  49.0214050   3.0385063  33.8109417  48.9693401   3.6240234  32.4158285
  47.8525237  20.2558374  27.0532479  48.0921835  20.8876898  27.7311497
  47.0094433  19.9046414  27.3397838  58.8351945  11.4036044  32.4912740
  57.9478724  11.0661966  32.6139138  59.4050496  10.6719075  32.7281505
  40.4881092   7.7360136  25.8155791  41.1752132   7.4221866  25.2276806
  40.3329221   8.6401500  25.5423042  45.2915814   2.6250332  30.2440815
  45.2074003   2.0176002  29.5091225  44.4698521   3.1159351  30.2450311
  52.3653098  16.0637496  29.4573983  52.2923270  16.8692468  29.9693287
  51.9230491  16.2629462  28.6322004  52.1542878  15.3009266  22.9676804
  51.3710400  15.8430947  23.0615029  52.8535623  15.8183246  23.3671046
  55.4639528   1.1103896  25.6111010  55.9608228   0.3573858  25.2912080
  54.6926510   1.1468213  25.0454219  63.3169286   6.8144261  27.2529301
  63.3059162   7.6968977  26.8823234  62.4486665   6.4615812  27.0583838
  54.8251782  15.9624330  31.6132141  55.5379754  16.5971795  31.5408043
  54.3341811  16.0588196  30.7972143  56.5469309   9.8675583  23.1849433
  55.6125588   9.9877046  23.0154137  56.7245977   8.9648050  22.9209443
  52.0474497   3.2521279  25.3382694  51.6772284   2.6992319  26.0263600
  52.5433589   2.6479412  24.7857694  59.9341860   5.7092902  23.7199467
  60.4002312   6.5420894  23.6459770  60.3849361   5.2437884  24.4244726
  49.8763695  13.7118774  32.4337712  50.5773155  14.3455257  32.5867106
  49.4058810  14.0533505  31.6733352  58.0018091  12.0536724  20.7185619
  58.2777935  11.9393318  21.6279493  57.1322590  11.6554209  20.6797792
  57.6764981   6.2663381  30.2590263  57.0236432   6.5139289  29.6042715
  58.0545361   5.4527520  29.9252740  54.6372155  16.3023075  24.3618433
  54.8194550  15.4844730  24.8246185  55.4605141  16.5190767  23.9243323
  54.9714321  15.2291260  21.6233481  55.5002087  14.7183714  21.0103644
  55.2342540  14.9133790  22.4879014  53.7252554   7.0083192  36.7456300
  53.0493191   6.9077322  37.4158675  54.5480188   6.8522406  37.2092297
  45.4731413  13.2455129  29.3668815  46.0584850  12.4998817  29.4996719
  45.2756252  13.5559086  30.2505479  48.3270069  16.2806376  24.3831257
  47.6580444  16.7652504  23.8995297  48.1882938  16.5275597  25.2974636
  40.0649068   5.8160729  28.0873258  40.1033168   5.2824320  28.8810376
  39.5589361   5.2895935  27.4684235  52.4675337  18.3150120  30.9813916
  53.0193645  18.4781741  31.7463001  52.8081531  18.9054558  30.3093941
  47.4439831   0.6625270  31.5835800  47.5081157   1.5240101  31.1713198
  47.3806951   0.0499271  30.8508159  46.9192103   2.7348402  35.2308835
  47.5464142   2.3525480  35.8446359  46.0620022   2.5162604  35.5964527
  57.3186212  13.1411377  36.8362570  57.8626116  13.7541336  36.3417525
  56.7373056  13.6990956  37.3529583  55.6043725  16.2632095  27.9677598
  55.4794864  15.4621835  27.4588543  56.2622816  16.7578289  27.4791568
  47.2251893   2.6180828  27.1454738  46.5038479   3.2316796  27.0062211
  48.0145149   3.1538593  27.0671384  57.6678633  14.0641115  29.5957148
  56.7208969  13.9446467  29.5235475  58.0161406  13.1763614  29.6783409
  50.0278206  -0.0464746  33.4195390  50.5512608   0.1997551  34.1821699
  49.8090540   0.7855289  32.9998527  54.6725066  13.8593832  25.7961500
  54.5250029  12.9310539  25.9769070  55.4978560  13.8813922  25.3118575
  48.5387311   2.5111899  21.6541992  48.8783383   3.0397820  20.9320601
  48.9859431   2.8492305  22.4300559  58.2759188  14.6822390  26.8826373
  59.2005736  14.4765252  26.7450824  58.1074491  14.4338792  27.7915714
  51.2330751   0.8948950  31.1045060  50.8927572   0.0956763  31.5065740
  50.5269758   1.1950660  30.5321894  51.8847223  -2.0201738  29.5572383
  52.7073293  -2.4941260  29.4351274  52.1285287  -1.2411254  30.0571070
  54.6686581   1.7131669  20.7893617  54.8850195   2.5956307  20.4882446
  54.1880648   1.3217883  20.0599259  49.4085802   4.6717383  27.3664362
  49.2630383   4.9857686  28.2588644  48.9311006   5.2902283  26.8135261
  51.2682185   1.6619931  27.4145252  51.2543754   0.7661024  27.0777550
  51.9854613   1.6690594  28.0483538  53.1208316   2.0957271  29.4598379
  52.8626093   3.0174341  29.4582709  52.5893356   1.6987705  30.1498843
  58.0654504  15.2008058  22.2388464  58.2391382  14.6354480  21.4862317
  58.5583396  16.0008953  22.0567954  43.8831464   7.2122727  30.3052023
  43.3384932   7.9882535  30.4372298  44.7610814   7.5593531  30.1471145
  50.6719081   0.5434311  22.6832822  50.7934992  -0.3849043  22.8823709
  50.3821123   0.5572997  21.7711137  63.9193895   7.9644481  23.8578764
  64.3625042   7.2151806  23.4597887  63.0420406   7.9554617  23.4752496
  59.0529677  14.5174822  19.3385363  59.7480581  15.1381515  19.5572677
  59.3952827  13.6670174  19.6137741  44.6697486   6.3392623  33.1982180
  43.9279222   6.4875259  33.7846810  44.3490230   6.6000889  32.3348929
  60.9521100  11.9674528  20.8672693  61.4772424  12.3061801  20.1422013
  60.8643452  11.0321543  20.6835828  52.6141149  15.8808601  32.9962570
  52.9228275  15.6357748  33.8685270  53.4116631  16.0855240  32.5081440
  52.6361761  18.0346511  25.2267947  52.1966751  17.5422890  25.9200803
  53.3869878  17.4919479  24.9860022  45.1154100  14.2258052  25.2292575
  45.9412120  13.9261824  24.8491218  44.7648152  13.4565674  25.6782363
  50.0835633  13.5784520  27.2990248  49.4615642  12.9155225  26.9992476
  50.7540500  13.6045652  26.6163896  43.3162705  12.1444378  26.1881508
  42.4794613  11.7166553  26.0065510  43.2886350  12.3376822  27.1252299
  50.1560160   2.0566308  36.8922754  50.2048316   2.9328431  36.5100524
  50.6982675   1.5143701  36.3194398  60.6415006  12.6007431  36.1723891
  59.8510550  12.5831570  35.6328391  60.4048361  13.1395725  36.9272928
  60.7612881   9.4499898  33.4856620  60.8110886   9.2849905  34.4272143
  60.6526804   8.5827157  33.0954501  49.6449140  12.1288444  20.7748709
  49.7937260  12.8123908  20.1215382  50.4515583  12.1093534  21.2898165
  58.0516643   5.4330826  34.8015927  58.9526506   5.2937291  34.5099924
  58.1264618   5.5985281  35.7414104  52.3859449   2.8097681  33.6469113
  51.5162758   3.1031247  33.3751702  52.6218929   3.3938126  34.3676377
  62.2631078  11.8696839  33.7298641  61.9715886  12.2326820  34.5662102
  61.6503209  11.1563848  33.5511974  63.4626760   9.4349719  26.2501212
  64.2973652   9.8739523  26.4138772  63.5985889   8.9588372  25.4309457
  60.5118266   6.9929454  32.1978699  60.9872388   7.1857100  31.3897551
  59.5883831   7.0488640  31.9522083  47.4001773   8.1553621  21.7809778
  47.1547815   7.2515951  21.9789988  47.5697687   8.1570772  20.8389256
  55.0898483  -0.9722702  31.1634533  55.6080426  -0.2361676  30.8381022
  54.7353615  -0.6658709  31.9981292  53.1444545  14.6236574  18.2460456
  52.5718512  15.2426761  17.7930928  53.7177339  15.1735936  18.7800378
  59.2119935   3.8695214  30.4307005  60.1637358   3.9693312  30.4519229
  59.0423386   3.0773483  30.9405089  57.2334315   0.9550797  30.6166406
  56.6384247   1.2355810  29.9212895  56.9484011   1.4444698  31.3883147
  56.3641805  14.9073724  19.3769039  57.2972478  14.8419286  19.5801914
  56.2765018  15.7429991  18.9183571  58.9929822  14.2239594  16.3372986
  58.9143453  13.8899458  17.2308744  59.8139489  14.7161362  16.3364458
  61.6908013   7.0901334  29.5449305  61.6584333   6.1517334  29.7308989
  62.3008637   7.1685370  28.8115130  61.8402501   3.8812377  29.5907588
  61.3241550   3.0970834  29.4037517  62.7242450   3.5531094  29.7554107
  67.5084563   8.1517341  28.6855342  68.2387951   7.8902629  29.2463045
  66.8991508   7.4146063  28.7257409  65.5899860   6.2925203  29.2829793
  64.8633023   6.1581168  28.6746284  65.1747147   6.6002032  30.0886511
  53.4130036  10.0115133  37.0477166  54.3333046  10.1893732  37.2417212
  53.3779619   9.0671178  36.8956865  42.6312201   5.2053727  25.9730440
  42.3114986   4.3519035  25.6804814  42.0845629   5.4202305  26.7288408
  46.4092109   7.9216168  29.6899947  46.6278119   8.8533275  29.7087981
  46.8217883   7.5624142  30.4754751  53.3296327  -1.5715747  21.6775635
  52.5197055  -1.9168662  22.0530881  54.0180744  -1.8808203  22.2663247
  51.2819974   3.4949373  39.0802696  51.1816701   4.4443730  39.0114787
  51.0641516   3.1667612  38.2078766  42.5000461   8.8256638  27.9423562
  41.8063933   8.4110591  27.4293516  43.2473452   8.8677175  27.3456981
  51.1451244   6.9246512  37.8967757  50.6618326   7.7246872  38.1031647
  51.2312183   6.9354457  36.9435201  44.4137204   8.7574892  25.8189577
  44.3907892   8.8562579  24.8671460  44.7237840   9.6040043  26.1406743
  47.0724582  10.8151047  29.9336191  48.0267835  10.7834989  29.8666123
  46.8737105  10.3541671  30.7486417  47.6623964   9.3852163  32.5006989
  48.4816853   9.8796242  32.5241826  47.9360772   8.4684131  32.4724556
  57.4190560   1.7762915  21.8634944  56.5316415   2.0612566  21.6455139
  57.8344549   1.6156679  21.0162221  60.7705096   1.8009436  25.5789284
  61.5465486   2.2905889  25.8513900  60.0453230   2.2267490  26.0361153
  63.2077655   2.5137055  26.6363224  63.8022146   2.2732791  25.9256533
  63.2804238   1.7944186  27.2636761  45.4274810  16.3570666  26.9506389
  45.2929278  15.5971067  26.3844387  45.0106873  17.0811566  26.4835178
  56.5633773  11.5407590  15.9582964  57.2669624  11.7457592  16.5740620
  55.8396422  12.1084352  16.2232048  57.3931584   7.2917451  22.0785235
  57.3366785   7.7486003  21.2392867  57.9459926   6.5308136  21.9008077
  61.2036390   3.0807183  22.9035354  60.9473324   2.6803819  23.7343562
  60.5789258   3.7950977  22.7785493  65.5148728   5.8203256  25.4106645
  64.9548286   5.8896446  26.1838208  64.9092231   5.6444241  24.6906142
  48.5843936  17.2539983  27.1624832  48.4676321  18.1985416  27.0603522
  47.7636383  16.9513545  27.5510631  58.4720471  11.9790119  18.0081424
  59.3066075  11.5471318  17.8258899  58.3104814  11.8072133  18.9358319
  58.1266363   8.4822232  19.3737764  58.0715167   8.3166504  18.4326208
  57.5012418   9.1898265  19.5299953  42.9158878   3.7190297  33.1999186
  43.5617742   3.2089251  33.6886411  42.7076029   4.4558978  33.7742611
  55.4412270  10.7871144  38.6991327  56.3103430  10.9611797  38.3377961
  54.9619022  11.6065561  38.5767056  49.6098450  17.9068245  30.3780760
  50.5125697  17.9391856  30.6947255  49.3835821  16.9768696  30.3927096
  51.3652053  16.6599232  27.0390839  50.4147684  16.6601093  26.9255211
  51.6684539  15.9131966  26.5226873  47.2556369   0.8657914  37.2974200
  48.1187831   0.5094719  37.5077525  46.6821780   0.5271809  37.9849604
  67.1004746  22.4959770  28.1036601  67.7383156  22.3766518  27.3999941
  66.9825589  23.4440614  28.1624553  63.9094452  22.4487198  28.0398126
  63.5712964  22.3328263  27.1518661  64.7784220  22.0478363  28.0199132
  59.7681268  24.3022675  24.0295017  59.2046133  24.2112612  23.2611305
  59.6533663  23.4822579  24.5097509  64.3914235  23.6022050  33.9984331
  64.3802876  23.2074848  33.1264835  64.5534875  22.8688123  34.5918103
  57.3145700  25.7973866  26.8679237  58.1066992  25.4564691  26.4525537
  57.5542350  25.9068841  27.7881391  65.3480827  27.9693642  19.3409482
  64.6968806  28.5547723  18.9543496  66.1425189  28.4999837  19.4004519
  59.2736454  25.0582780  19.7396616  60.0467330  24.5111767  19.6009492
  59.6261853  25.9227029  19.9511078  61.1121496  26.3859162  32.9463515
  60.8211362  27.2904793  32.8310182  61.7478481  26.4275689  33.6607585
  62.0377703  23.7636010  29.5364875  62.6341276  23.5392033  28.8221838
  62.0952675  23.0220756  30.1390323  61.6102732  21.2175446  17.3715066
  61.8628252  20.6956967  16.6098529  60.6727291  21.0541591  17.4741750
  66.6546014  20.2211224  25.1789809  67.4409104  19.8030647  24.8280226
  66.9184719  21.1257316  25.3471458  66.8256092  25.6584074  19.8778466
  66.1901925  25.7318701  20.5899371  66.4953498  26.2477673  19.1997545
  72.0554442  20.1586457  26.0822788  72.7879614  19.5885674  26.3160617
  71.2993797  19.7708058  26.5229293  61.3299020  23.1203552  19.5739441
  61.2135279  22.4448455  20.2420525  61.4401280  22.6335926  18.7571594
  63.6730561  22.5813699  23.2786130  63.3088769  22.0544320  23.9899052
  64.5297677  22.1912168  23.1052616  69.5779862  13.8708031  30.5417396
  69.2463187  14.7403442  30.3178611  68.9825475  13.5544315  31.2211427
  63.3136048  17.6103598  18.2747479  63.4810451  18.4783835  18.6417950
  63.1233217  17.7730880  17.3508768  66.0711381  26.0720577  29.9413309
  65.7712105  26.9745616  29.8329116  65.7262441  25.8052761  30.7934462
  59.5223863  22.5234374  25.9750014  58.5974359  22.3910588  26.1827705
  59.7708276  23.3028593  26.4719956  69.4708525  18.5903118  27.6210746
  68.5625403  18.5218526  27.3269507  69.4196121  19.0675062  28.4492572
  63.2925269  20.0661256  19.2594146  63.1724894  20.5118307  20.0979626
  62.5977858  20.4146574  18.7007684  56.8832674  22.1667648  26.8093803
  57.0125055  22.4202127  27.7233214  56.2030125  22.7595356  26.4898458
  71.3370172  16.7919556  29.3988620  70.6944552  17.0852089  28.7528415
  70.8325100  16.6772476  30.2041817  68.9910335  20.5382729  20.0874480
  69.9028191  20.7710116  19.9122177  68.4819982  21.1219773  19.5249558
  67.2751103  24.9607357  33.7235772  67.6834459  24.5189767  32.9790405
  66.5528365  24.3859984  33.9769965  63.6282173  19.8979964  31.0969329
  64.4743368  20.3219377  31.2403978  63.5680811  19.2413588  31.7907892
  67.5979918  25.5208548  27.4788061  66.9688780  25.6854262  26.7764129
  67.2105580  25.9350157  28.2499025  71.4769150  26.4562985  24.8332425
  70.7920188  26.8361887  24.2829458  71.5612999  27.0658312  25.5664373
  66.7781618  17.5584332  32.7550503  66.5342550  18.3126393  32.2184778
  67.0541549  17.9369680  33.5897750  68.7320081  24.1022944  31.4327768
  68.9436976  24.7454704  30.7562149  68.6849829  23.2685261  30.9649698
  66.3346310  16.7140765  28.3364340  65.4730789  17.0122019  28.6281078
  66.3608745  16.9311164  27.4045373  63.1507880  25.2582956  24.7438146
  63.6146225  25.5370659  23.9542769  62.8864678  24.3566400  24.5611237
  60.0431961  24.8054437  27.6817909  60.6133318  25.2341706  27.0435394
  60.6340072  24.5237022  28.3802095  62.0876766  21.3806108  21.5527711
  62.7900809  21.8327152  22.0201638  61.7557394  20.7389927  22.1807604
  55.8302100  19.6389661  26.8544845  55.0401154  19.8947189  26.3784955
  56.3213347  20.4537999  26.9596885  69.8465909  26.9794900  29.6050126
  70.6683353  26.5775087  29.3232807  69.8428312  26.8763134  30.5566241
  57.7816845  20.0034240  23.8128322  56.9848008  20.1152934  24.3311817
  57.5542437  20.3420892  22.9469212  63.6122513  26.5278943  31.7610836
  63.6766945  26.9899350  32.5969008  62.9033436  25.8976308  31.8893146
  54.1139803  19.8920151  29.2859836  54.3647841  20.7767161  29.5517412
  54.6499351  19.7124753  28.5134927  77.9371902  23.3233648  25.9535097
  77.1835611  22.7541046  25.7979102  78.0719443  23.2896313  26.9005732
  63.3270530  28.1947051  21.6289817  63.1916205  29.0398586  22.0574664
  63.8680343  28.3966328  20.8655750  59.8137870  14.2738630  38.2904172
  59.4204815  13.7204829  38.9651816  60.6304010  14.5849209  38.6810689
  56.7799928  25.7122489  22.2017742  57.2924448  26.5065739  22.3523306
  57.4322640  25.0148779  22.1351343  58.5894812  28.8288245  24.2840495
  58.7661441  29.7506210  24.0961479  59.3851646  28.5146664  24.7134875
  62.7305831  15.6896510  35.8824428  63.4715544  16.2903663  35.8028891
  62.9623754  14.9474147  35.3242471  57.8747169  20.8752877  34.1602658
  57.7600684  19.9738134  34.4609757  57.0191687  21.1216574  33.8087475
  67.0520245  29.0973417  33.7871560  67.0338720  29.9182298  33.2951829
  67.9740165  28.9727492  34.0121701  63.5093299  26.6117547  34.6295068
  64.0421636  25.8505835  34.3994376  62.9807380  26.3191198  35.3719223
  66.6762994  11.7177613  30.1588710  66.3327263  12.6079254  30.0827821
  67.0441956  11.5279270  29.2958295  54.7448844  24.0411143  22.9777312
  55.5824066  24.4508151  22.7611020  54.9227112  23.1010585  22.9477506
  66.6413276  21.7086224  18.6661145  66.1259900  22.4790828  18.9049533
  66.3690585  21.0351360  19.2894207  64.2260388  16.5535924  23.7246383
  63.3701984  16.1642775  23.5452022  64.6387339  16.6327885  22.8646169
  65.7559534  14.0882268  28.1237943  65.2524330  14.0512403  27.3105749
  66.0490141  14.9975010  28.1834600  62.0002420  14.1720997  27.1304125
  62.8655417  13.9763806  26.7710014  62.0679929  13.9431349  28.0573482
  71.6147551  24.4618578  20.6014319  70.8376993  24.1229738  20.1569481
  72.2939032  24.4671201  19.9269284  66.4299580  19.5813316  20.4920926
  66.1249715  19.8959465  21.3431069  67.3830022  19.6594736  20.5348259
  64.8746012  25.7403539  22.1413880  64.3467373  25.0056299  21.8287118
  64.3733514  26.5178215  21.8953849  69.8538858  23.9352560  27.2580927
  69.1962532  24.6251821  27.3461055  70.6579257  24.3248991  27.6014913
  59.6064739  16.4023205  24.5020492  60.1808491  16.1798387  23.7693685
  60.1935722  16.4711900  25.2549093  68.6644316  22.2896932  25.3084868
  69.1776198  22.9226924  25.8106578  69.3145540  21.6898128  24.9428228
  59.9334326  18.4327666  18.5216377  59.0971638  18.7702353  18.8425652
  59.7939096  18.2976646  17.5843514  61.9087407  13.2764454  23.2295561
  61.2551819  12.9613471  22.6052176  61.8667881  12.6540195  23.9555384
  63.0198612  23.5583749  15.1448853  62.1125673  23.3273003  15.3440002
  63.5169644  22.7621369  15.3322835  65.9266691  32.2681256  18.0645539
  65.2528389  32.5712953  18.6730497  66.3132513  33.0710337  17.7150997
  65.1425147  19.7646388  27.5543209  64.2247709  19.9861335  27.3964897
  65.5585291  19.8392698  26.6954916  65.9260195  21.1637803  22.6845889
  66.6732014  21.6759201  22.3753011  66.1951785  20.8421856  23.5450283
  64.1986845  23.6596344  19.6672843  63.2898064  23.3755377  19.7645313
  64.2281929  24.0795423  18.8076150  68.3739032  18.1994920  24.6664678
  67.6361789  17.6872306  24.9974921  68.6265806  17.7595301  23.8547955
  67.8739052  29.1079430  24.3713829  68.1662026  29.6684487  23.6526195
  68.3837672  29.4007991  25.1266988  68.4750659  10.9771172  25.2606448
  68.7809536  10.1168535  24.9732363  69.2003264  11.5688792  25.0605442
  54.7675016  21.3801858  23.6488046  54.5699415  20.7871219  22.9239112
  54.2121680  21.0754068  24.3663984  62.7471739  21.2724965  25.7682639
  62.8020349  20.3198801  25.6925115  61.9362941  21.4284404  26.2523937
  63.8962933  25.2005088  17.0060922  63.4582363  24.4840947  16.5466559
  64.6373374  25.4281203  16.4446013  60.6864099  19.8902024  23.5273018
  59.8731965  20.1896195  23.9338210  61.1823093  19.4957713  24.2447500
  62.8372677  29.8859781  25.4607282  62.7948856  30.1120628  24.5315814
  63.7535376  29.6523156  25.6093083  66.2838311  20.3543849  32.3587912
  66.6387699  20.5815322  33.2182377  66.9310442  20.6862226  31.7365167
  72.0136048  23.4762285  23.0637241  71.8753946  23.6663881  22.1358430
  71.6572267  24.2381668  23.5205292  60.1778174  17.4620380  29.1434253
  60.8177553  17.3209139  28.4457216  59.3455704  17.1754893  28.7672855
  72.0405427  25.5438812  28.0748512  72.4741934  25.4514101  28.9231566
  72.7537008  25.5196312  27.4368528  60.9538478  26.7622810  25.2569245
  61.7479076  26.2673131  25.0551820  60.2430170  26.2340674  24.8936951
  65.7733322  29.1440906  29.6081613  65.8270345  29.7131842  30.3759329
  64.9048104  29.3142791  29.2435650  57.2621241  20.9065892  21.3328998
  56.3318829  20.8450348  21.5498960  57.3578713  20.3841845  20.5365639
  57.1806790  17.4320705  23.9207239  57.4413608  18.3466038  23.8116400
  58.0023963  16.9645148  24.0703852  58.6531716  18.8458462  31.0906064
  59.3254769  18.6375824  30.4418713  57.8261502  18.6480548  30.6511296
  72.9020977  25.5862513  30.6081397  73.0956867  26.4908323  30.8540672
  72.8021595  25.1269932  31.4419982  64.5557288  15.4720403  33.1071725
  63.9085203  16.1710353  33.0136201  65.3258303  15.9056547  33.4747973
  67.9636086  25.7369255  36.1822278  67.8121592  25.5079807  35.2652362
  67.9540765  26.6939857  36.1953623  64.7321422  23.3101168  31.1668544
  65.6613482  23.4612328  30.9937512  64.3112452  23.3985189  30.3117191
  63.5309754  27.3351832  28.9367082  63.3920839  26.9670617  29.8093020
  62.7424350  27.8499472  28.7651040  65.0814969  26.7133435  26.3255920
  64.7464802  26.6734205  27.2213570  64.5818915  26.0478151  25.8526330
  59.0559213  22.1201065  31.8508501  58.9179011  21.3881304  32.4520040
  59.9664136  22.0309965  31.5692689  68.0174161  24.0589469  16.5992980
  67.4003331  23.3336298  16.5026032  67.5490649  24.8198830  16.2560054
  61.6841514  21.8321024  31.3392181  62.3941132  21.1914217  31.2978799
  61.6410822  22.0833919  32.2618361  69.6728292  28.7688378  34.2598760
  69.6140838  28.0847598  33.5929343  70.0747811  29.5107368  33.8079386
  60.3970448  18.8186242  33.1587820  59.8607805  18.3676981  33.8109417
  59.8087156  18.9532151  32.4158285  59.8072706  18.2774894  15.7214284
  58.9302173  18.1563695  15.3576530  60.2830460  17.4860972  15.4693172
  69.6745699  26.7327962  32.4912740  68.7872478  26.3953884  32.6139138
  70.2444251  26.0010993  32.7281505  51.3274847  23.0652053  25.8155791
  52.0145886  22.7513784  25.2276806  51.1722975  23.9693418  25.5423042
  56.1309569  17.9542250  30.2440815  56.0467757  17.3467920  29.5091225
  55.3092275  18.4451268  30.2450311  63.2046853  31.3929414  29.4573983
  63.1317024  32.1984386  29.9693287  62.7624246  31.5921380  28.6322004
  62.9936632  30.6301184  22.9676804  62.2104154  31.1722864  23.0615029
  63.6929378  31.1475164  23.3671046  66.3033283  16.4395814  25.6111010
  66.8001982  15.6865776  25.2912080  65.5320264  16.4760130  25.0454219
  74.1563040  22.1436179  27.2529301  74.1452916  23.0260895  26.8823234
  73.2880419  21.7907730  27.0583838  67.3863063  25.1967501  23.1849433
  66.4519342  25.3168963  23.0154137  67.5639732  24.2939968  22.9209443
  62.8868251  18.5813197  25.3382694  62.5166039  18.0284237  26.0263600
  63.3827344  17.9771330  24.7857694  70.7735615  21.0384820  23.7199467
  71.2396067  21.8712812  23.6459770  71.2243115  20.5729802  24.4244726
  68.8411846  27.3828641  20.7185619  69.1171690  27.2685236  21.6279493
  67.9716344  26.9846126  20.6797792  68.7452277  13.4065407  27.7590369
  67.8315357  13.6369634  27.9272576  69.1745379  13.4903851  28.6104401
  68.5158736  21.5955299  30.2590263  67.8630186  21.8431206  29.6042715
  68.8939116  20.7819437  29.9252740  65.4765910  31.6314992  24.3618433
  65.6588304  30.8136648  24.8246185  66.2998896  31.8482684  23.9243323
  65.8108075  30.5583177  21.6233481  66.3395842  30.0475632  21.0103644
  66.0736295  30.2425708  22.4879014  50.9042823  21.1452647  28.0873258
  50.9426922  20.6116238  28.8810376  50.3983116  20.6187852  27.4684235
  58.2833585  15.9917187  31.5835800  58.3474912  16.8532018  31.1713198
  58.2200705  15.3791189  30.8508159  57.7585858  18.0640320  35.2308835
  58.3857896  17.6817397  35.8446359  56.9013776  17.8454522  35.5964527
  68.1579966  28.4703295  36.8362570  68.7019870  29.0833253  36.3417525
  67.5766811  29.0282873  37.3529583  54.5351400  19.8716749  21.1627189
  54.8304841  18.9627427  21.1094243  53.6339436  19.8504488  20.8408192
  58.0645647  17.9472746  27.1454738  57.3432233  18.5608713  27.0062211
  58.8538903  18.4830510  27.0671384  68.5072387  29.3933033  29.5957148
  67.5602723  29.2738384  29.5235475  68.8555161  28.5055531  29.6783409
  60.8671961  15.2827172  33.4195390  61.3906363  15.5289469  34.1821699
  60.6484294  16.1147207  32.9998527  56.2639242  17.5530847  21.2866515
  55.9351948  16.6728226  21.1041621  56.6178613  17.4978515  22.1742904
  65.5118821  29.1885749  25.7961500  65.3643783  28.2602457  25.9769070
  66.3372314  29.2105840  25.3118575  59.3781065  17.8403816  21.6541992
  59.7177138  18.3689738  20.9320601  59.8253186  18.1784223  22.4300559
  69.1152943  30.0114308  26.8826373  70.0399490  29.8057169  26.7450824
  68.9468246  29.7630709  27.7915714  62.0724506  16.2240867  31.1045060
  61.7321326  15.4248680  31.5065740  61.3663512  16.5242578  30.5321894
  62.7240978  13.3090180  29.5572383  63.5467047  12.8350658  29.4351274
  62.9679041  14.0880663  30.0571070  61.3649212  16.3378438  19.8535285
  62.0857575  16.7159691  19.3499002  60.7414516  17.0567315  19.9570263
  65.5080335  17.0423587  20.7893617  65.7243949  17.9248225  20.4882446
  65.0274402  16.6509800  20.0599259  60.2479556  20.0009300  27.3664362
  60.1024137  20.3149603  28.2588644  59.7704760  20.6194201  26.8135261
  62.1075939  16.9911848  27.4145252  62.0937508  16.0952942  27.0777550
  62.8248367  16.9982512  28.0483538  63.9602070  17.4249188  29.4598379
  63.7019848  18.3466259  29.4582709  63.4287110  17.0279623  30.1498843
  68.9048259  30.5299976  22.2388464  69.0785136  29.9646398  21.4862317
  69.3977150  31.3300870  22.0567954  54.7225219  22.5414645  30.3052023
  54.1778687  23.3174453  30.4372298  55.6004568  22.8885449  30.1471145
  61.5112835  15.8726229  22.6832822  61.6328746  14.9442875  22.8823709
  61.2214878  15.8864914  21.7711137  64.3804026  13.5581139  25.8199542
  64.4025722  13.6220472  24.8651521  64.7972085  12.7185648  26.0140048
  74.7587650  23.2936399  23.8578764  75.2018796  22.5443724  23.4597887
  73.8814160  23.2846535  23.4752496  69.8923431  29.8466740  19.3385363
  70.5874336  30.4673433  19.5572677  70.2346581  28.9962091  19.6137741
  55.5091240  21.6684541  33.1982180  54.7672977  21.8167176  33.7846810
  55.1883985  21.9292807  32.3348929  71.7914854  27.2966446  20.8672693
  72.3166179  27.6353718  20.1422013  71.7037207  26.3613461  20.6835828
  55.9547854  29.5549970  25.2292575  56.7805874  29.2553742  24.8491218
  55.6041906  28.7857592  25.6782363  60.9229387  28.9076438  27.2990248
  60.3009397  28.2447143  26.9992476  61.5934254  28.9337570  26.6163896
  54.1556459  27.4736296  26.1881508  53.3188368  27.0458470  26.0065510
  54.1280105  27.6668739  27.1252299  60.9953915  17.3858226  36.8922754
  61.0442070  18.2620349  36.5100524  61.5376429  16.8435619  36.3194398
  71.6006636  24.7791816  33.4856620  71.6504640  24.6141823  34.4272143
  71.4920559  23.9119075  33.0954501  60.4842894  27.4580361  20.7748709
  60.6331015  28.1415826  20.1215382  61.2909338  27.4385451  21.2898165
  68.8910398  20.7622744  34.8015927  69.7920261  20.6229208  34.5099924
  68.9658372  20.9277198  35.7414104  63.2253203  18.1389598  33.6469113
  62.3556513  18.4323164  33.3751702  63.4612684  18.7230043  34.3676377
  74.3020515  24.7641637  26.2501212  75.1367406  25.2031441  26.4138772
  74.4379643  24.2880290  25.4309457  71.3512021  22.3221372  32.1978699
  71.8266142  22.5149018  31.3897551  70.4277586  22.3780557  31.9522083
  58.2395527  23.4845539  21.7809778  57.9941569  22.5807869  21.9789988
  58.4091442  23.4862689  20.8389256  65.9292237  14.3569215  31.1634533
  66.4474181  15.0930242  30.8381022  65.5747370  14.6633209  31.9981292
  57.5091175  19.2173896  19.2795939  56.8160420  19.2918251  18.6235975
  57.2642927  18.4534240  19.8017456  66.1804831  10.7769498  26.6835430
  66.4606585  10.1092687  27.3095856  66.9655438  10.9698593  26.1710094
  63.9838300  29.9528492  18.2460456  63.4112267  30.5718679  17.7930928
  64.5571093  30.5027853  18.7800378  70.0513690  19.1987132  30.4307005
  71.0031112  19.2985229  30.4519229  69.8817140  18.4065400  30.9405089
  68.0728069  16.2842715  30.6166406  67.4778001  16.5647728  29.9212895
  67.7877766  16.7736616  31.3883147  67.2035560  30.2365642  19.3769039
  68.1366233  30.1711203  19.5801914  67.1158772  31.0721909  18.9183571
  69.8323576  29.5531512  16.3372986  69.7537208  29.2191376  17.2308744
  70.6533243  30.0453280  16.3364458  72.5301767  22.4193251  29.5449305
  72.4978087  21.4809252  29.7308989  73.1402391  22.4977288  28.8115130
  64.3685098  21.2889304  15.5876509  65.3144203  21.1595513  15.6564927
  63.9899343  20.5503966  16.0645937  72.6796256  19.2104295  29.5907588
  72.1635305  18.4262752  29.4037517  73.5636204  18.8823011  29.7554107
  70.3406983  12.9545310  25.5503401  70.1431804  12.6460399  26.4346733
  70.9506688  13.6806949  25.6801330  78.3478317  23.4809258  28.6855342
  79.0781706  23.2194546  29.2463045  77.7385263  22.7437980  28.7257409
  76.4293614  21.6217121  29.2829793  75.7026778  21.4873086  28.6746284
  76.0140901  21.9293949  30.0886511  62.5528015  19.2139281  15.5231394
  61.6459471  18.9172394  15.5994108  62.8303996  18.9169099  14.6565680
  53.4705956  20.5345644  25.9730440  53.1508740  19.6810952  25.6804814
  52.9239384  20.7494222  26.7288408  57.2485863  23.2508085  29.6899947
  57.4671873  24.1825193  29.7087981  57.6611637  22.8916060  30.4754751
  64.1690081  13.7576171  21.6775635  63.3590809  13.4123255  22.0530881
  64.8574498  13.4483714  22.2663247  66.0980629  12.8354217  23.2999932
  66.6511668  13.2549671  23.9589955  66.3350716  11.9089965  23.3422888
  61.3226800  16.0726216  15.6643373  62.1845964  16.3981114  15.9239191
  61.5077144  15.2857712  15.1516439  53.3394216  24.1548556  27.9423562
  52.6457687  23.7402508  27.4293516  54.0867207  24.1969092  27.3456981
  69.4759436  14.9454742  22.8078596  68.8958106  15.6039547  22.4256649
  69.2095369  14.1232087  22.3966014  67.9263003  14.3459800  25.0099916
  68.4262781  14.4576335  24.2014235  68.5698611  14.0420853  25.6500725
  55.2530958  24.0866809  25.8189577  55.2301646  24.1854497  24.8671460
  55.5631595  24.9331960  26.1406743  57.9118336  26.1442965  29.9336191
  58.8661590  26.1126907  29.8666123  57.7130860  25.6833588  30.7486417
  58.5017718  24.7144081  32.5006989  59.3210607  25.2088159  32.5241826
  58.7754526  23.7976049  32.4724556  68.2584315  17.1054833  21.8634944
  67.3710170  17.3904483  21.6455139  68.6738304  16.9448596  21.0162221
  71.6098851  17.1301354  25.5789284  72.3859241  17.6197806  25.8513900
  70.8846985  17.5559408  26.0361153  74.0471409  17.8428973  26.6363224
  74.6415900  17.6024709  25.9256533  74.1197993  17.1236104  27.2636761
  67.4027528  26.8699508  15.9582964  68.1063378  27.0749510  16.5740620
  66.6790177  27.4376269  16.2232048  68.2325338  22.6209369  22.0785235
  68.1760540  23.0777920  21.2392867  68.7853681  21.8600053  21.9008077
  72.0430144  18.4099101  22.9035354  71.7867078  18.0095736  23.7343562
  71.4183012  19.1242895  22.7785493  76.3542482  21.1495174  25.4106645
  75.7942040  21.2188363  26.1838208  75.7485985  20.9736159  24.6906142
  69.3114225  27.3082037  18.0081424  70.1459829  26.8763235  17.8258899
  69.1498568  27.1364050  18.9358319  68.9660118  23.8114150  19.3737764
  68.9108921  23.6458421  18.4326208  68.3406173  24.5190183  19.5299953
  53.7552633  19.0482214  33.1999186  54.4011496  18.5381168  33.6886411
  53.5469784  19.7850896  33.7742611  62.2756243  13.3122259  18.9523082
  62.2634913  14.2564099  19.1091353  63.1679665  13.1292404  18.6582543
  66.0908362   9.9065036  23.2069019  65.3240758   9.3523522  23.3525701
  66.5019067   9.9786904  24.0683171  58.0950124  16.1949831  37.2974200
  58.9581585  15.8386636  37.5077525  57.5215534  15.8563726  37.9849604
  76.1874581  43.2985560  19.3409482  75.5362561  43.8839640  18.9543496
  76.9818944  43.8291755  19.4004519  72.4496486  36.5467363  17.3715066
  72.7022007  36.0248885  16.6098529  71.5121045  36.3833509  17.4741750
  77.4939769  35.5503142  25.1789809  78.2802858  35.1322565  24.8280226
  77.7578473  36.4549234  25.3471458  77.6649846  40.9875992  19.8778466
  77.0295679  41.0610619  20.5899371  77.3347253  41.5769591  19.1997545
  82.8948196  35.4878375  26.0822788  83.6273368  34.9177592  26.3160617
  82.1387552  35.0999975  26.5229293  74.5124316  37.9105616  23.2786130
  74.1482523  37.3836237  23.9899052  75.3691432  37.5204085  23.1052616
  80.4173616  29.1999949  30.5417396  80.0856941  30.0695360  30.3178611
  79.8219230  28.8836233  31.2211427  74.1529803  32.9395516  18.2747479
  74.3204205  33.8075752  18.6417950  73.9626972  33.1022798  17.3508768
  80.3102280  33.9195035  27.6210746  79.4019157  33.8510444  27.3269507
  80.2589876  34.3966980  28.4492572  74.1319024  35.3953174  19.2594146
  74.0118649  35.8410224  20.0979626  73.4371612  35.7438491  18.7007684
  82.1763926  32.1211474  29.3988620  81.5338306  32.4144007  28.7528415
  81.6718855  32.0064394  30.2041817  79.8304090  35.8674647  20.0874480
  80.7421946  36.1002034  19.9122177  79.3213737  36.4511691  19.5249558
  82.3162904  41.7854903  24.8332425  81.6313942  42.1653804  24.2829458
  82.4006753  42.3950230  25.5664373  77.1740065  32.0432683  28.3364340
  76.3124544  32.3413936  28.6281078  77.2002499  32.2603082  27.4045373
  73.9901634  40.5874873  24.7438146  74.4539980  40.8662576  23.9542769
  73.7258432  39.6858318  24.5611237  72.9270520  36.7098026  21.5527711
  73.6294563  37.1619069  22.0201638  72.5951149  36.0681845  22.1807604
  88.7765657  38.6525566  25.9535097  88.0229365  38.0832964  25.7979102
  88.9113198  38.6188230  26.9005732  77.5156748  27.0469530  30.1588710
  77.1721018  27.9371172  30.0827821  77.8835711  26.8571188  29.2958295
  77.4807031  37.0378141  18.6661145  76.9653654  37.8082746  18.9049533
  77.2084339  36.3643277  19.2894207  75.0654142  31.8827842  23.7246383
  74.2095738  31.4934692  23.5452022  75.4781094  31.9619803  22.8646169
  76.5953289  29.4174185  28.1237943  76.0918084  29.3804320  27.3105749
  76.8883896  30.3266928  28.1834600  72.8396175  29.5012915  27.1304125
  73.7049171  29.3055724  26.7710014  72.9073683  29.2723267  28.0573482
  82.4541305  39.7910496  20.6014319  81.6770748  39.4521655  20.1569481
  83.1332786  39.7963119  19.9269284  77.2693334  34.9105233  20.4920926
  76.9643470  35.2251383  21.3431069  78.2223776  34.9886653  20.5348259
  75.7139766  41.0695457  22.1413880  75.1861128  40.3348216  21.8287118
  75.2127269  41.8470133  21.8953849  70.4458494  31.7315123  24.5020492
  71.0202246  31.5090304  23.7693685  71.0329476  31.8003817  25.2549093
  79.5038071  37.6188850  25.3084868  80.0169953  38.2518842  25.8106578
  80.1539295  37.0190045  24.9428228  70.7728081  33.7619584  18.5216377
  69.9365393  34.0994271  18.8425652  70.6332850  33.6268564  17.5843514
  72.7481161  28.6056372  23.2295561  72.0945574  28.2905389  22.6052176
  72.7061635  27.9832112  23.9555384  73.8592366  38.8875667  15.1448853
  72.9519428  38.6564920  15.3440002  74.3563398  38.0913286  15.3322835
  76.7660445  47.5973174  18.0645539  76.0922144  47.9004871  18.6730497
  77.1526267  48.4002254  17.7150997  75.9818902  35.0938305  27.5543209
  75.0641463  35.3153252  27.3964897  76.3979045  35.1684616  26.6954916
  76.7653949  36.4929721  22.6845889  77.5125768  37.0051118  22.3753011
  77.0345539  36.1713774  23.5450283  75.0380600  38.9888262  19.6672843
  74.1291819  38.7047295  19.7645313  75.0675683  39.4087340  18.8076150
  80.2699867  42.5994851  23.4364011  79.8162194  41.7585761  23.4929201
  79.6393834  43.2356250  23.7738791  79.2132787  33.5286837  24.6664678
  78.4755543  33.0164224  24.9974921  79.4659560  33.0887219  23.8547955
  78.7132806  44.4371348  24.3713829  79.0055781  44.9976405  23.6526195
  79.2231427  44.7299909  25.1266988  79.3144414  26.3063089  25.2606448
  79.6203291  25.4460453  24.9732363  80.0397019  26.8980710  25.0605442
  74.7356687  40.5297005  17.0060922  74.2976117  39.8132864  16.5466559
  75.4767128  40.7573120  16.4446013  71.5257854  35.2193942  23.5273018
  70.7125719  35.5188113  23.9338210  72.0216848  34.8249631  24.2447500
  82.8529802  38.8054203  23.0637241  82.7147701  38.9955799  22.1358430
  82.4966021  39.5673585  23.5205292  82.8799182  40.8730730  28.0748512
  83.3135688  40.7806019  28.9231566  83.5930763  40.8488230  27.4368528
  68.0200545  32.7612623  23.9207239  68.2807362  33.6757956  23.8116400
  68.8417717  32.2937065  24.0703852  83.7414731  40.9154430  30.6081397
  83.9350621  41.8200241  30.8540672  83.6415350  40.4561849  31.4419982
  74.9651660  47.7652847  20.2792619  75.1403416  47.2940890  21.0938241
  74.2784448  48.3918613  20.5073879  75.9208723  42.0425353  26.3255920
  75.5858556  42.0026123  27.2213570  75.4212669  41.3770069  25.8526330
  78.8567915  39.3881387  16.5992980  78.2397086  38.6628215  16.5026032
  78.3884404  40.1490747  16.2560054  70.6466461  33.6066811  15.7214284
  69.7695927  33.4855612  15.3576530  71.1224214  32.8152890  15.4693172
  77.1427037  31.7687731  25.6111010  77.6395737  31.0157694  25.2912080
  76.3714019  31.8052048  25.0454219  84.9956795  37.4728097  27.2529301
  84.9846671  38.3552812  26.8823234  84.1274174  37.1199648  27.0583838
  78.2256818  40.5259418  23.1849433  77.2913097  40.6460881  23.0154137
  78.4033486  39.6231885  22.9209443  73.7262006  33.9105114  25.3382694
  73.3559793  33.3576155  26.0263600  74.2221098  33.3063248  24.7857694
  81.6129369  36.3676738  23.7199467  82.0789821  37.2004729  23.6459770
  82.0636870  35.9021719  24.4244726  79.6805600  42.7120559  20.7185619
  79.9565444  42.5977154  21.6279493  78.8110099  42.3138044  20.6797792
  79.5846032  28.7357325  27.7590369  78.6709112  28.9661552  27.9272576
  80.0139133  28.8195769  28.6104401  76.3159664  46.9606910  24.3618433
  76.4982059  46.1428566  24.8246185  77.1392650  47.1774602  23.9243323
  76.6501830  45.8875095  21.6233481  77.1789596  45.3767550  21.0103644
  76.9130049  45.5717625  22.4879014  77.2831234  46.9215931  27.9677598
  77.1582373  46.1205671  27.4588543  77.9410325  47.4162124  27.4791568
  79.3466142  44.7224951  29.5957148  78.3996477  44.6030302  29.5235475
  79.6948915  43.8347449  29.6783409  67.1032996  32.8822764  21.2866515
  66.7745703  32.0020143  21.1041621  67.4572367  32.8270433  22.1742904
  70.2174820  33.1695734  21.6541992  70.5570892  33.6981655  20.9320601
  70.6646940  33.5076140  22.4300559  79.9546697  45.3406226  26.8826373
  80.8793245  45.1349087  26.7450824  79.7862000  45.0922627  27.7915714
  73.5634732  28.6382097  29.5572383  74.3860802  28.1642575  29.4351274
  73.8072796  29.4172581  30.0571070  72.2042967  31.6670356  19.8535285
  72.9251329  32.0451609  19.3499002  71.5808271  32.3859233  19.9570263
  76.3474090  32.3715505  20.7893617  76.5637704  33.2540143  20.4882446
  75.8668157  31.9801718  20.0599259  72.9469694  32.3203766  27.4145252
  72.9331263  31.4244859  27.0777550  73.6642122  32.3274430  28.0483538
  74.7995825  32.7541106  29.4598379  74.5413602  33.6758177  29.4582709
  74.2680865  32.3571541  30.1498843  79.7442013  45.8591893  22.2388464
  79.9178891  45.2938316  21.4862317  80.2370905  46.6592788  22.0567954
  72.3506590  31.2018146  22.6832822  72.4722501  30.2734792  22.8823709
  72.0608632  31.2156832  21.7711137  75.2197780  28.8873057  25.8199542
  75.2419477  28.9512390  24.8651521  75.6365839  28.0477565  26.0140048
  85.5981404  38.6228316  23.8578764  86.0412551  37.8735641  23.4597887
  84.7207915  38.6138453  23.4752496  80.7317186  45.1758658  19.3385363
  81.4268090  45.7965350  19.5572677  81.0740336  44.3254009  19.6137741
  82.6308609  42.6258363  20.8672693  83.1559933  42.9645636  20.1422013
  82.5430961  41.6905379  20.6835828  83.9418587  42.5280675  33.7298641
  83.6503395  42.8910655  34.5662102  83.3290718  41.8147683  33.5511974
  85.1414269  40.0933554  26.2501212  85.9761161  40.5323359  26.4138772
  85.2773398  39.6172208  25.4309457  68.3484929  34.5465814  19.2795939
  67.6554174  34.6210169  18.6235975  68.1036681  33.7826158  19.8017456
  77.0198586  26.1061415  26.6835430  77.3000340  25.4384604  27.3095856
  77.8049193  26.2990511  26.1710094  74.8232054  45.2820409  18.2460456
  74.2506021  45.9010596  17.7930928  75.3964848  45.8319771  18.7800378
  80.8907444  34.5279049  30.4307005  81.8424867  34.6277147  30.4519229
  80.7210895  33.7357318  30.9405089  78.9121824  31.6134633  30.6166406
  78.3171756  31.8939645  29.9212895  78.6271520  32.1028534  31.3883147
  78.0429314  45.5657559  19.3769039  78.9759987  45.5003121  19.5801914
  77.9552527  46.4013826  18.9183571  80.6717331  44.8823430  16.3372986
  80.5930962  44.5483293  17.2308744  81.4926997  45.3745198  16.3364458
  83.3695522  37.7485169  29.5449305  83.3371842  36.8101170  29.7308989
  83.9796146  37.8269206  28.8115130  75.2078853  36.6181222  15.5876509
  76.1537957  36.4887430  15.6564927  74.8293098  35.8795884  16.0645937
  83.5190010  34.5396213  29.5907588  83.0029059  33.7554669  29.4037517
  84.4029959  34.2114929  29.7554107  81.1800737  28.2837228  25.5503401
  80.9825558  27.9752316  26.4346733  81.7900443  29.0098867  25.6801330
  89.1872072  38.8101176  28.6855342  89.9175460  38.5486464  29.2463045
  88.5779017  38.0729898  28.7257409  87.2687369  36.9509039  29.2829793
  86.5420532  36.8165003  28.6746284  86.8534656  37.2585867  30.0886511
  73.3921770  34.5431198  15.5231394  72.4853225  34.2464311  15.5994108
  73.6697751  34.2461017  14.6565680  75.0083836  29.0868088  21.6775635
  74.1984564  28.7415173  22.0530881  75.6968253  28.7775632  22.2663247
  76.9374384  28.1646135  23.2999932  77.4905423  28.5841588  23.9589955
  77.1744470  27.2381883  23.3422888  72.1620555  31.4018134  15.6643373
  73.0239719  31.7273032  15.9239191  72.3470899  30.6149630  15.1516439
  80.3153191  30.2746660  22.8078596  79.7351860  30.9331464  22.4256649
  80.0489124  29.4524005  22.3966014  78.7656757  29.6751718  25.0099916
  79.2656536  29.7868252  24.2014235  79.4092365  29.3712771  25.6500725
  79.0978069  32.4346751  21.8634944  78.2103924  32.7196401  21.6455139
  79.5132058  32.2740514  21.0162221  82.4492605  32.4593272  25.5789284
  83.2252995  32.9489724  25.8513900  81.7240739  32.8851326  26.0361153
  84.8865164  33.1720891  26.6363224  85.4809655  32.9316627  25.9256533
  84.9591747  32.4528021  27.2636761  78.2421282  42.1991425  15.9582964
  78.9457133  42.4041428  16.5740620  77.5183931  42.7668187  16.2232048
  79.0719093  37.9501286  22.0785235  79.0154294  38.4069838  21.2392867
  79.6247435  37.1891971  21.9008077  82.8823899  33.7391018  22.9035354
  82.6260833  33.3387654  23.7343562  82.2576767  34.4534812  22.7785493
  87.1936237  36.4787092  25.4106645  86.6335795  36.5480281  26.1838208
  86.5879740  36.3028076  24.6906142  80.1507980  42.6373954  18.0081424
  80.9853584  42.2055153  17.8258899  79.9892323  42.4655968  18.9358319
  79.8053872  39.1406068  19.3737764  79.7502676  38.9750339  18.4326208
  79.1799927  39.8482101  19.5299953  73.1149998  28.6414177  18.9523082
  73.1028667  29.5856017  19.1091353  74.0073419  28.4584322  18.6582543
  76.9302117  25.2356953  23.2069019  76.1634513  24.6815440  23.3525701
  77.3412822  25.3078822  24.0683171  88.7792255  53.1543606  28.1036601
  89.4170665  53.0350353  27.3999941  88.6613098  54.1024449  28.1624553
  85.5881961  53.1071034  28.0398126  85.2500473  52.9912098  27.1518661
  86.4571729  52.7062199  28.0199132  81.4468777  54.9606510  24.0295017
  80.8833642  54.8696447  23.2611305  81.3321172  54.1406414  24.5097509
  86.0701744  54.2605885  33.9984331  86.0590385  53.8658684  33.1264835
  86.2322384  53.5271958  34.5918103  78.9933209  56.4557702  26.8679237
  79.7854501  56.1148526  26.4525537  79.2329859  56.5652677  27.7881391
  87.0268336  58.6277478  19.3409482  86.3756315  59.2131558  18.9543496
  87.8212698  59.1583673  19.4004519  80.9523963  55.7166615  19.7396616
  81.7254839  55.1695602  19.6009492  81.3049362  56.5810864  19.9511078
  82.7909005  57.0442997  32.9463515  82.4998871  57.9488628  32.8310182
  83.4265990  57.0859525  33.6607585  83.7165212  54.4219846  29.5364875
  84.3128784  54.1975868  28.8221838  83.7740184  53.6804591  30.1390323
  83.2890241  51.8759281  17.3715066  83.5415761  51.3540802  16.6098529
  82.3514800  51.7125426  17.4741750  88.3333523  50.8795059  25.1789809
  89.1196613  50.4614483  24.8280226  88.5972228  51.7841152  25.3471458
  88.5043601  56.3167910  19.8778466  87.8689434  56.3902536  20.5899371
  88.1741007  56.9061509  19.1997545  93.7341951  50.8170293  26.0822788
  94.4667123  50.2469509  26.3160617  92.9781306  50.4291893  26.5229293
  83.0086529  53.7787387  19.5739441  82.8922787  53.1032290  20.2420525
  83.1188789  53.2919761  18.7571594  85.3518070  53.2397534  23.2786130
  84.9876278  52.7128155  23.9899052  86.2085186  52.8496003  23.1052616
  91.2567371  44.5291867  30.5417396  90.9250696  45.3987278  30.3178611
  90.6612984  44.2128151  31.2211427  84.9923557  48.2687434  18.2747479
  85.1597960  49.1367670  18.6417950  84.8020726  48.4314715  17.3508768
  87.7498890  56.7304413  29.9413309  87.4499614  57.6329451  29.8329116
  87.4049950  56.4636596  30.7934462  81.2011372  53.1818210  25.9750014
  80.2761868  53.0494424  26.1827705  81.4495785  53.9612429  26.4719956
  91.1496034  49.2486953  27.6210746  90.2412912  49.1802361  27.3269507
  91.0983630  49.7258898  28.4492572  84.9712778  50.7245091  19.2594146
  84.8512403  51.1702142  20.0979626  84.2765367  51.0730409  18.7007684
  78.5620183  52.8251483  26.8093803  78.6912564  53.0785962  27.7233214
  77.8817634  53.4179191  26.4898458  82.7319670  63.4948733  22.9084277
  82.6543700  64.4456558  22.9872757  82.1281314  63.1494606  23.5659203
  85.2236900  50.6676598  35.5645644  84.4470234  51.2270519  35.5548508
  85.8627463  51.1533381  36.0860514  93.0157681  47.4503391  29.3988620
  92.3732061  47.7435924  28.7528415  92.5112609  47.3356312  30.2041817
  90.6697844  51.1966564  20.0874480  91.5815700  51.4293951  19.9122177
  90.1607491  51.7803609  19.5249558  83.4783272  53.4762052  35.1263611
  84.2197957  54.0147096  34.8498434  82.7720258  54.1028341  35.2835162
  88.9538612  55.6191192  33.7235772  89.3621968  55.1773603  32.9790405
  88.2315873  55.0443820  33.9769965  85.3069682  50.5563799  31.0969329
  86.1530877  50.9803213  31.2403978  85.2468320  49.8997423  31.7907892
  89.2767427  56.1792383  27.4788061  88.6476289  56.3438097  26.7764129
  88.8893089  56.5933992  28.2499025  93.1556659  57.1146821  24.8332425
  92.4707697  57.4945722  24.2829458  93.2400508  57.7242147  25.5664373
  88.4569127  48.2168167  32.7550503  88.2130059  48.9710228  32.2184778
  88.7329058  48.5953515  33.5897750  90.4107590  54.7606780  31.4327768
  90.6224485  55.4038540  30.7562149  90.3637338  53.9269096  30.9649698
  88.0133819  47.3724600  28.3364340  87.1518298  47.6705854  28.6281078
  88.0396254  47.5894999  27.4045373  84.8295389  55.9166791  24.7438146
  85.2933734  56.1954494  23.9542769  84.5652187  55.0150236  24.5611237
  81.7219470  55.4638273  27.6817909  82.2920827  55.8925541  27.0435394
  82.3127581  55.1820857  28.3802095  83.7664275  52.0389943  21.5527711
  84.4688318  52.4910987  22.0201638  83.4344903  51.3973762  22.1807604
  77.5089609  50.2973496  26.8544845  76.7188663  50.5531025  26.3784955
  78.0000856  51.1121834  26.9596885  91.5253418  57.6378735  29.6050126
  92.3470862  57.2358922  29.3232807  91.5215821  57.5346969  30.5566241
  79.4604354  50.6618075  23.8128322  78.6635517  50.7736770  24.3311817
  79.2329946  51.0004727  22.9469212  85.2910022  57.1862778  31.7610836
  85.3554454  57.6483186  32.5969008  84.5820945  56.5560143  31.8893146
  99.6159411  53.9817484  25.9535097  98.8623120  53.4124882  25.7979102
  99.7506952  53.9480148  26.9005732  85.0058039  58.8530886  21.6289817
  84.8703714  59.6982422  22.0574664  85.5467852  59.0550164  20.8655750
  78.4587437  56.3706324  22.2017742  78.9711957  57.1649574  22.3523306
  79.1110149  55.6732614  22.1351343  80.2682321  59.4872080  24.2840495
  80.4448950  60.4090045  24.0961479  81.0639155  59.1730499  24.7134875
  86.6326516  59.4754452  35.7590159  86.1890370  58.6890831  35.4411063
  87.2943729  59.6633603  35.0934049  81.3913637  61.0050254  30.2850837
  81.9421062  60.8767317  29.5127831  80.5525113  61.3045143  29.9345730
  88.7307754  59.7557252  33.7871560  88.7126229  60.5766133  33.2951829
  89.6527674  59.6311328  34.0121701  85.1880808  57.2701382  34.6295068
  85.7209145  56.5089670  34.3994376  84.6594889  56.9775034  35.3719223
  88.3550503  42.3761448  30.1588710  88.0114772  43.2663090  30.0827821
  88.7229465  42.1863105  29.2958295  76.4236353  54.6994978  22.9777312
  77.2611575  55.1091987  22.7611020  76.6014621  53.7594420  22.9477506
  88.3200785  52.3670059  18.6661145  87.8047409  53.1374664  18.9049533
  88.0478094  51.6935195  19.2894207  85.9047897  47.2119760  23.7246383
  85.0489493  46.8226610  23.5452022  86.3174848  47.2911721  22.8646169
  87.4347043  44.7466103  28.1237943  86.9311839  44.7096238  27.3105749
  87.7277650  45.6558846  28.1834600  83.6789929  44.8304833  27.1304125
  84.5442926  44.6347641  26.7710014  83.7467438  44.6015185  28.0573482
  93.2935060  55.1202414  20.6014319  92.5164502  54.7813573  20.1569481
  93.9726541  55.1255037  19.9269284  88.1087089  50.2397151  20.4920926
  87.8037224  50.5543300  21.3431069  89.0617531  50.3178571  20.5348259
  86.5533521  56.3987374  22.1413880  86.0254882  55.6640134  21.8287118
  86.0521023  57.1762051  21.8953849  91.5326367  54.5936395  27.2580927
  90.8750041  55.2835656  27.3461055  92.3366766  54.9832827  27.6014913
  81.2852248  47.0607041  24.5020492  81.8596000  46.8382222  23.7693685
  81.8723231  47.1295735  25.2549093  90.3431825  52.9480768  25.3084868
  90.8563707  53.5810759  25.8106578  90.9933049  52.3481963  24.9428228
  81.6121835  49.0911502  18.5216377  80.7759147  49.4286188  18.8425652
  81.4726605  48.9560481  17.5843514  83.5874916  43.9348290  23.2295561
  82.9339328  43.6197307  22.6052176  83.5455390  43.3124030  23.9555384
  84.6986121  54.2167585  15.1448853  83.7913182  53.9856838  15.3440002
  85.1957153  53.4205204  15.3322835  87.6054200  62.9265092  18.0645539
  86.9315898  63.2296789  18.6730497  87.9920022  63.7294172  17.7150997
  86.8212656  50.4230223  27.5543209  85.9035218  50.6445170  27.3964897
  87.2372800  50.4976534  26.6954916  87.6047704  51.8221639  22.6845889
  88.3519523  52.3343036  22.3753011  87.8739293  51.5005692  23.5450283
  85.8774354  54.3180180  19.6672843  84.9685573  54.0339212  19.7645313
  85.9069438  54.7379258  18.8076150  91.1093622  57.9286769  23.4364011
  90.6555949  57.0877679  23.4929201  90.4787588  58.5648167  23.7738791
  90.0526541  48.8578755  24.6664678  89.3149298  48.3456141  24.9974921
  90.3053315  48.4179137  23.8547955  89.5526561  59.7663266  24.3713829
  89.8449535  60.3268323  23.6526195  90.0625181  60.0591827  25.1266988
  90.1538168  41.6355007  25.2606448  90.4597045  40.7752370  24.9732363
  90.8790773  42.2272627  25.0605442  76.4462524  52.0385694  23.6488046
  76.2486924  51.4455054  22.9239112  75.8909188  51.7337904  24.3663984
  84.4259248  51.9308800  25.7682639  84.4807858  50.9782637  25.6925115
  83.6150450  52.0868239  26.2523937  85.5750442  55.8588923  17.0060922
  85.1369872  55.1424782  16.5466559  86.3160883  56.0865038  16.4446013
  82.3651608  50.5485860  23.5273018  81.5519474  50.8480030  23.9338210
  82.8610602  50.1541549  24.2447500  84.5160186  60.5443617  25.4607282
  84.4736365  60.7704463  24.5315814  85.4322885  60.3106991  25.6093083
  87.9625820  51.0127684  32.3587912  88.3175207  51.2399157  33.2182377
  88.6097951  51.3446061  31.7365167  93.6923557  54.1346120  23.0637241
  93.5541455  54.3247716  22.1358430  93.3359776  54.8965503  23.5205292
  81.8565683  48.1204215  29.1434253  82.4965062  47.9792974  28.4457216
  81.0243213  47.8338729  28.7672855  93.7192936  56.2022647  28.0748512
  94.1529443  56.1097936  28.9231566  94.4324517  56.1780148  27.4368528
  82.6325987  57.4206646  25.2569245  83.4266585  56.9256966  25.0551820
  81.9217679  56.8924509  24.8936951  87.4520831  59.8024741  29.6081613
  87.5057853  60.3715678  30.3759329  86.5835613  59.9726626  29.2435650
  78.9408750  51.5649728  21.3328998  78.0106338  51.5034183  21.5498960
  79.0366222  51.0425680  20.5365639  78.8594299  48.0904540  23.9207239
  79.1201117  49.0049874  23.8116400  79.6811472  47.6228983  24.0703852
  94.5808486  56.2446348  30.6081397  94.7744376  57.1492158  30.8540672
  94.4809104  55.7853767  31.4419982  86.2344797  46.1304238  33.1071725
  85.5872712  46.8294188  33.0136201  87.0045812  46.5640382  33.4747973
  89.6423595  56.3953091  36.1822278  89.4909101  56.1663642  35.2652362
  89.6328274  57.3523692  36.1953623  86.4108931  53.9685003  31.1668544
  87.3400991  54.1196163  30.9937512  85.9899961  54.0569024  30.3117191
  85.2097263  57.9935668  28.9367082  85.0708348  57.6254452  29.8093020
  84.4211859  58.5083307  28.7651040  85.8045415  63.0944764  20.2792619
  85.9797170  62.6232807  21.0938241  85.1178203  63.7210530  20.5073879
  86.7602478  57.3717270  26.3255920  86.4252310  57.3318040  27.2213570
  86.2606424  56.7061986  25.8526330  89.6961670  54.7173305  16.5992980
  89.0790840  53.9920133  16.5026032  89.2278158  55.4782665  16.2560054
  83.3629023  52.4904860  31.3392181  84.0728641  51.8498052  31.2978799
  83.3198331  52.7417755  32.2618361  91.3515801  59.4272213  34.2598760
  91.2928347  58.7431433  33.5929343  91.7535320  60.1691203  33.8079386
  80.3706500  66.2434127  27.0532479  80.6103098  66.8752651  27.7311497
  79.5275696  65.8922167  27.3397838  81.4860215  48.9358729  15.7214284
  80.6089682  48.8147530  15.3576530  81.9617969  48.1444807  15.4693172
  91.3533208  57.3911797  32.4912740  90.4659987  57.0537719  32.6139138
  91.9231760  56.6594828  32.7281505  84.8834362  62.0513249  29.4573983
  84.8104533  62.8568221  29.9693287  84.4411755  62.2505215  28.6322004
  84.6724141  61.2885019  22.9676804  83.8891663  61.8306700  23.0615029
  85.3716887  61.8058999  23.3671046  87.9820792  47.0979649  25.6111010
  88.4789491  46.3449611  25.2912080  87.2107773  47.1343966  25.0454219
  95.8350549  52.8020014  27.2529301  95.8240425  53.6844730  26.8823234
  94.9667928  52.4491565  27.0583838  87.3433045  61.9500083  31.6132141
  88.0561018  62.5847548  31.5408043  86.8523074  62.0463949  30.7972143
  89.0650572  55.8551336  23.1849433  88.1306851  55.9752799  23.0154137
  89.2427241  54.9523803  22.9209443  84.5655760  49.2397032  25.3382694
  84.1953548  48.6868072  26.0263600  85.0614853  48.6355165  24.7857694
  92.4523124  51.6968655  23.7199467  92.9183576  52.5296647  23.6459770
  92.9030624  51.2313637  24.4244726  82.3944959  59.6994527  32.4337712
  83.0954418  60.3331010  32.5867106  81.9240074  60.0409258  31.6733352
  90.5199355  58.0412477  20.7185619  90.7959199  57.9269071  21.6279493
  89.6503853  57.6429962  20.6797792  90.4239786  44.0649242  27.7590369
  89.5102866  44.2953469  27.9272576  90.8532888  44.1487687  28.6104401
  90.1946245  52.2539134  30.2590263  89.5417695  52.5015042  29.6042715
  90.5726625  51.4403273  29.9252740  87.1553419  62.2898828  24.3618433
  87.3375813  61.4720484  24.8246185  87.9786405  62.5066520  23.9243323
  87.4895584  61.2167013  21.6233481  88.0183351  60.7059467  21.0103644
  87.7523804  60.9009543  22.4879014  86.2433818  52.9958945  36.7456300
  85.5674455  52.8953075  37.4158675  87.0661452  52.8398159  37.2092297
  77.9912677  59.2330882  29.3668815  78.5766114  58.4874570  29.4996719
  77.7937515  59.5434839  30.2505479  80.8451332  62.2682129  24.3831257
  80.1761707  62.7528257  23.8995297  80.7064202  62.5151350  25.2974636
  84.9856601  64.3025873  30.9813916  85.5374909  64.4657494  31.7463001
  85.3262794  64.8930311  30.3093941  79.9621094  46.6501023  31.5835800
  80.0262420  47.5115854  31.1713198  79.8988214  46.0375024  30.8508159
  89.8367475  59.1287130  36.8362570  90.3807379  59.7417089  36.3417525
  89.2554320  59.6866709  37.3529583  76.2138909  50.5300584  21.1627189
  76.5092350  49.6211263  21.1094243  75.3126945  50.5088324  20.8408192
  88.1224988  62.2507848  27.9677598  87.9976128  61.4497588  27.4588543
  88.7804079  62.7454042  27.4791568  79.7433156  48.6056581  27.1454738
  79.0219742  49.2192549  27.0062211  80.5326412  49.1414346  27.0671384
  90.1859896  60.0516869  29.5957148  89.2390232  59.9322220  29.5235475
  90.5342670  59.1639367  29.6783409  77.9426751  48.2114682  21.2866515
  77.6139457  47.3312061  21.1041621  78.2966122  48.1562351  22.1742904
  87.1906330  59.8469585  25.7961500  87.0431292  58.9186292  25.9769070
  88.0159823  59.8689675  25.3118575  81.0568574  48.4987652  21.6541992
  81.3964647  49.0273573  20.9320601  81.5040695  48.8368058  22.4300559
  90.7940452  60.6698143  26.8826373  91.7186999  60.4641005  26.7450824
  90.6255755  60.4214545  27.7915714  83.7512015  46.8824703  31.1045060
  83.4108835  46.0832516  31.5065740  83.0451021  47.1826413  30.5321894
  84.4028487  43.9674015  29.5572383  85.2254556  43.4934493  29.4351274
  84.6466550  44.7464499  30.0571070  83.0436721  46.9962273  19.8535285
  83.7645084  47.3743526  19.3499002  82.4202025  47.7151150  19.9570263
  87.1867844  47.7007422  20.7893617  87.4031458  48.5832060  20.4882446
  86.7061911  47.3093636  20.0599259  81.9267065  50.6593136  27.3664362
  81.7811646  50.9733439  28.2588644  81.4492269  51.2778036  26.8135261
  83.7863448  47.6495684  27.4145252  83.7725017  46.7536777  27.0777550
  84.5035876  47.6566347  28.0483538  85.6389579  48.0833024  29.4598379
  85.3807357  49.0050094  29.4582709  85.1074619  47.6863458  30.1498843
  90.5835768  61.1883811  22.2388464  90.7572645  60.6230233  21.4862317
  91.0764659  61.9884706  22.0567954  83.1900344  46.5310064  22.6832822
  83.3116255  45.6026710  22.8823709  82.9002387  46.5448750  21.7711137
  86.0591535  44.2164974  25.8199542  86.0813231  44.2804307  24.8651521
  86.4759594  43.3769483  26.0140048  96.4375159  53.9520234  23.8578764
  96.8806305  53.2027559  23.4597887  95.5601669  53.9430370  23.4752496
  91.5710940  60.5050575  19.3385363  92.2661845  61.1257268  19.5572677
  91.9134090  59.6545927  19.6137741  93.4702363  57.9550281  20.8672693
  93.9953687  58.2937554  20.1422013  93.3824716  57.0197296  20.6835828
  85.1322412  61.8684355  32.9962570  85.4409539  61.6233501  33.8685270
  85.9297894  62.0730993  32.5081440  85.1543024  64.0222264  25.2267947
  84.7148014  63.5298643  25.9200803  85.9051141  63.4795232  24.9860022
  77.6335363  60.2133805  25.2292575  78.4593383  59.9137577  24.8491218
  77.2829415  59.4441427  25.6782363  82.6016896  59.5660273  27.2990248
  81.9796906  58.9030978  26.9992476  83.2721763  59.5921405  26.6163896
  75.8343968  58.1320131  26.1881508  74.9975876  57.7042306  26.0065510
  75.8067614  58.3252575  27.1252299  93.1596269  58.5883184  36.1723891
  92.3691813  58.5707323  35.6328391  92.9229624  59.1271478  36.9272928
  93.2794145  55.4375651  33.4856620  93.3292149  55.2725658  34.4272143
  93.1708068  54.5702910  33.0954501  82.1630403  58.1164197  20.7748709
  82.3118524  58.7999661  20.1215382  82.9696847  58.0969287  21.2898165
  90.5697907  51.4206579  34.8015927  91.4707770  51.2813044  34.5099924
  90.6445881  51.5861034  35.7414104  84.9040712  48.7973434  33.6469113
  84.0344022  49.0907000  33.3751702  85.1400193  49.3813879  34.3676377
  94.7812341  57.8572592  33.7298641  94.4897150  58.2202573  34.5662102
  94.1684473  57.1439601  33.5511974  95.9808024  55.4225472  26.2501212
  96.8154915  55.8615276  26.4138772  96.1167152  54.9464125  25.4309457
  93.0299530  52.9805207  32.1978699  93.5053651  53.1732853  31.3897551
  92.1065095  53.0364393  31.9522083  79.9183036  54.1429374  21.7809778
  79.6729078  53.2391704  21.9789988  80.0878951  54.1446525  20.8389256
  87.6079746  45.0153051  31.1634533  88.1261690  45.7514078  30.8381022
  87.2534879  45.3217044  31.9981292  79.1878684  49.8757732  19.2795939
  78.4947929  49.9502087  18.6235975  78.9430436  49.1118075  19.8017456
  87.8592340  41.4353333  26.6835430  88.1394094  40.7676522  27.3095856
  88.6442947  41.6282429  26.1710094  85.6625809  60.6112327  18.2460456
  85.0899776  61.2302514  17.7930928  86.2358602  61.1611689  18.7800378
  91.7301199  49.8570967  30.4307005  92.6818621  49.9569065  30.4519229
  91.5604649  49.0649236  30.9405089  89.7515578  46.9426550  30.6166406
  89.1565510  47.2231563  29.9212895  89.4665275  47.4320451  31.3883147
  88.8823069  60.8949477  19.3769039  89.8153742  60.8295039  19.5801914
  88.7946281  61.7305744  18.9183571  91.5111085  60.2115347  16.3372986
  91.4324717  59.8775211  17.2308744  92.3320752  60.7037115  16.3364458
  94.2089276  53.0777087  29.5449305  94.1765596  52.1393088  29.7308989
  94.8189900  53.1561124  28.8115130  86.0472607  51.9473140  15.5876509
  86.9931712  51.8179348  15.6564927  85.6686852  51.2087802  16.0645937
  94.3583765  49.8688130  29.5907588  93.8422814  49.0846587  29.4037517
  95.2423713  49.5406847  29.7554107  92.0194492  43.6129146  25.5503401
  91.8219313  43.3044234  26.4346733  92.6294197  44.3390785  25.6801330
 100.0265826  54.1393094  28.6855342 100.7569215  53.8778382  29.2463045
  99.4172772  53.4021816  28.7257409  98.1081123  52.2800956  29.2829793
  97.3814287  52.1456921  28.6746284  97.6928410  52.5877785  30.0886511
  85.9311300  55.9990886  37.0477166  86.8514309  56.1769485  37.2417212
  85.8960883  55.0546931  36.8956865  84.2315524  49.8723116  15.5231394
  83.3246980  49.5756229  15.5994108  84.5091505  49.5752934  14.6565680
  75.1493465  51.1929480  25.9730440  74.8296249  50.3394788  25.6804814
  74.6026893  51.4078058  26.7288408  85.8477590  44.4160006  21.6775635
  85.0378318  44.0707091  22.0530881  86.5362007  44.1067550  22.2663247
  87.7768138  43.4938053  23.2999932  88.3299177  43.9133506  23.9589955
  88.0138225  42.5673801  23.3422888  83.8001238  49.4825126  39.0802696
  83.6997965  50.4319483  39.0114787  83.5822780  49.1543365  38.2078766
  83.0014309  46.7310051  15.6643373  83.8633473  47.0564950  15.9239191
  83.1864653  45.9441547  15.1516439  91.1546945  45.6038578  22.8078596
  90.5745615  46.2623382  22.4256649  90.8882878  44.7815922  22.3966014
  89.6050512  45.0043636  25.0099916  90.1050290  45.1160170  24.2014235
  90.2486120  44.7004688  25.6500725  83.6632508  52.9122265  37.8967757
  83.1799589  53.7122625  38.1031647  83.7493447  52.9230210  36.9435201
  76.9318467  54.7450645  25.8189577  76.9089155  54.8438332  24.8671460
  77.2419104  55.5915796  26.1406743  79.5905845  56.8026800  29.9336191
  80.5449099  56.7710742  29.8666123  79.3918369  56.3417424  30.7486417
  89.9371824  47.7638668  21.8634944  89.0497679  48.0488319  21.6455139
  90.3525813  47.6032432  21.0162221  93.2886360  47.7885189  25.5789284
  94.0646750  48.2781642  25.8513900  92.5634494  48.2143243  26.0361153
  95.7258918  48.5012808  26.6363224  96.3203409  48.2608544  25.9256533
  95.7985502  47.7819939  27.2636761  77.9456074  62.3446419  26.9506389
  77.8110542  61.5846820  26.3844387  77.5288136  63.0687319  26.4835178
  89.0815037  57.5283343  15.9582964  89.7850887  57.7333345  16.5740620
  88.3577686  58.0960105  16.2232048  89.9112847  53.2793204  22.0785235
  89.8548049  53.7361756  21.2392867  90.4641190  52.5183889  21.9008077
  93.7217653  49.0682936  22.9035354  93.4654587  48.6679572  23.7343562
  93.0970521  49.7826730  22.7785493  98.0329991  51.8079009  25.4106645
  97.4729549  51.8772199  26.1838208  97.4273494  51.6319994  24.6906142
  81.1025200  63.2415736  27.1624832  80.9857584  64.1861169  27.0603522
  80.2817646  62.9389298  27.5510631  90.9901734  57.9665872  18.0081424
  91.8247338  57.5347071  17.8258899  90.8286077  57.7947886  18.9358319
  90.6447627  54.4697985  19.3737764  90.5896430  54.3042257  18.4326208
  90.0193682  55.1774018  19.5299953  87.9593534  56.7746897  38.6991327
  88.8284693  56.9487550  38.3377961  87.4800285  57.5941314  38.5767056
  83.9543752  43.9706094  18.9523082  83.9422422  44.9147934  19.1091353
  84.8467174  43.7876240  18.6582543  82.1279714  63.8943998  30.3780760
  83.0306961  63.9267609  30.6947255  81.9017084  62.9644449  30.3927096
  83.8833316  62.6474985  27.0390839  82.9328947  62.6476846  26.9255211
  84.1865802  61.9007719  26.5226873  87.7695871  40.5648871  23.2069019
  87.0028267  40.0107358  23.3525701  88.1806576  40.6370740  24.0683171
  99.6186009  68.4835523  28.1036601 100.2564419  68.3642271  27.3999941
  99.5006852  69.4316367  28.1624553  96.4275716  68.4362951  28.0398126
  96.0894227  68.3204016  27.1518661  97.2965484  68.0354116  28.0199132
  92.2862531  70.2898428  24.0295017  91.7227397  70.1988365  23.2611305
  92.1714926  69.4698332  24.5097509  96.9095499  69.5897803  33.9984331
  96.8984140  69.1950601  33.1264835  97.0716138  68.8563876  34.5918103
  89.8326963  71.7849619  26.8679237  90.6248255  71.4440444  26.4525537
  90.0723614  71.8944594  27.7881391  97.8662090  73.9569395  19.3409482
  97.2150070  74.5423476  18.9543496  98.6606453  74.4875590  19.4004519
  91.7917717  71.0458533  19.7396616  92.5648593  70.4987520  19.6009492
  92.1443116  71.9102782  19.9511078  93.6302760  72.3734915  32.9463515
  93.3392626  73.2780546  32.8310182  94.2659744  72.4151442  33.6607585
  94.5558967  69.7511763  29.5364875  95.1522539  69.5267786  28.8221838
  94.6133938  69.0096509  30.1390323  94.1283995  67.2051199  17.3715066
  94.3809516  66.6832720  16.6098529  93.1908554  67.0417344  17.4741750
  99.1727278  66.2086977  25.1789809  99.9590367  65.7906400  24.8280226
  99.4365982  67.1133069  25.3471458  99.3437355  71.6459827  19.8778466
  98.7083188  71.7194454  20.5899371  99.0134762  72.2353426  19.1997545
 104.5735705  66.1462210  26.0822788 105.3060877  65.5761427  26.3160617
 103.8175061  65.7583811  26.5229293  93.8480284  69.1079305  19.5739441
  93.7316542  68.4324208  20.2420525  93.9582544  68.6211679  18.7571594
  96.1911825  68.5689452  23.2786130  95.8270032  68.0420073  23.9899052
  97.0478941  68.1787921  23.1052616 102.0961125  59.8583784  30.5417396
 101.7644450  60.7279195  30.3178611 101.5006739  59.5420068  31.2211427
  95.8317312  63.5979351  18.2747479  95.9991714  64.4659588  18.6417950
  95.6414481  63.7606633  17.3508768  98.5892645  72.0596330  29.9413309
  98.2893368  72.9621369  29.8329116  98.2443704  71.7928514  30.7934462
  92.0405126  68.5110127  25.9750014  91.1155623  68.3786341  26.1827705
  92.2889540  69.2904346  26.4719956 101.9889789  64.5778871  27.6210746
 101.0806666  64.5094279  27.3269507 101.9377385  65.0550815  28.4492572
  95.8106533  66.0537009  19.2594146  95.6906158  66.4994060  20.0979626
  95.1159121  66.4022327  18.7007684  89.4013937  68.1543401  26.8093803
  89.5306319  68.4077880  27.7233214  88.7211389  68.7471109  26.4898458
  93.5713425  78.8240651  22.9084277  93.4937454  79.7748476  22.9872757
  92.9675068  78.4786523  23.5659203  96.0630655  65.9968516  35.5645644
  95.2863989  66.5562436  35.5548508  96.7021218  66.4825299  36.0860514
 103.8551435  62.7795309  29.3988620 103.2125815  63.0727842  28.7528415
 103.3506364  62.6648229  30.2041817 101.5091599  66.5258482  20.0874480
 102.4209455  66.7585869  19.9122177 101.0001246  67.1095526  19.5249558
  94.3177027  68.8053969  35.1263611  95.0591711  69.3439013  34.8498434
  93.6114012  69.4320258  35.2835162  99.7932366  70.9483110  33.7235772
 100.2015723  70.5065520  32.9790405  99.0709628  70.3735737  33.9769965
  96.1463437  65.8855717  31.0969329  96.9924632  66.3095130  31.2403978
  96.0862074  65.2289341  31.7907892 100.1161181  71.5084301  27.4788061
  99.4870044  71.6730015  26.7764129  99.7286843  71.9225910  28.2499025
 103.9950413  72.4438738  24.8332425 103.3101451  72.8237640  24.2829458
 104.0794262  73.0534065  25.5664373  99.2962882  63.5460085  32.7550503
  99.0523814  64.3002146  32.2184778  99.5722812  63.9245433  33.5897750
 101.2501345  70.0898697  31.4327768 101.4618240  70.7330457  30.7562149
 101.2031093  69.2561014  30.9649698  98.8527574  62.7016518  28.3364340
  97.9912053  62.9997772  28.6281078  98.8790008  62.9186917  27.4045373
  95.6689143  71.2458709  24.7438146  96.1327489  71.5246412  23.9542769
  95.4045941  70.3442153  24.5611237  92.5613224  70.7930190  27.6817909
  93.1314581  71.2217459  27.0435394  93.1521336  70.5112775  28.3802095
  94.6058029  67.3681861  21.5527711  95.3082072  67.8202905  22.0201638
  94.2738658  66.7265680  22.1807604  93.0538391  65.9593618  35.9278921
  92.4237051  66.6409899  36.1614318  92.9474478  65.8476699  34.9832059
  88.3483363  65.6265414  26.8544845  87.5582417  65.8822942  26.3784955
  88.8394610  66.4413752  26.9596885 102.3647173  72.9670653  29.6050126
 103.1864616  72.5650840  29.3232807 102.3609575  72.8638887  30.5566241
  90.2998108  65.9909993  23.8128322  89.5029272  66.1028687  24.3311817
  90.0723701  66.3296645  22.9469212  96.1303776  72.5154696  31.7610836
  96.1948209  72.9775103  32.5969008  95.4214700  71.8852061  31.8893146
  86.6321066  65.8795904  29.2859836  86.8829104  66.7642914  29.5517412
  87.1680614  65.7000506  28.5134927  95.8451794  74.1822804  21.6289817
  95.7097468  75.0274339  22.0574664  96.3861606  74.3842081  20.8655750
  92.3319133  60.2614384  38.2904172  91.9386079  59.7080582  38.9651816
  93.1485274  60.5724962  38.6810689  89.2981191  71.6998242  22.2017742
  89.8105712  72.4941492  22.3523306  89.9503904  71.0024532  22.1351343
  91.1076076  74.8163998  24.2840495  91.2842704  75.7381963  24.0961479
  91.9032909  74.5022417  24.7134875  95.2487094  61.6772263  35.8824428
  95.9896808  62.2779416  35.8028891  95.4805017  60.9349900  35.3242471
  90.3928432  66.8628630  34.1602658  90.2781947  65.9613887  34.4609757
  89.5372950  67.1092327  33.8087475  97.4720270  74.8046370  35.7590159
  97.0284124  74.0182749  35.4411063  98.1337484  74.9925521  35.0934049
  92.2307391  76.3342172  30.2850837  92.7814816  76.2059235  29.5127831
  91.3918867  76.6337061  29.9345730  99.5701508  75.0849170  33.7871560
  99.5519983  75.9058051  33.2951829 100.4921428  74.9603245  34.0121701
  96.0274562  72.5993300  34.6295068  96.5602899  71.8381588  34.3994376
  95.4988643  72.3066951  35.3719223  99.1944257  57.7053366  30.1588710
  98.8508527  58.5955007  30.0827821  99.5623220  57.5155023  29.2958295
  87.2630108  70.0286896  22.9777312  88.1005330  70.4383904  22.7611020
  87.4408376  69.0886338  22.9477506  99.1594540  67.6961977  18.6661145
  98.6441163  68.4666581  18.9049533  98.8871848  67.0227113  19.2894207
  96.7441651  62.5411677  23.7246383  95.8883247  62.1518528  23.5452022
  97.1568603  62.6203638  22.8646169  98.2740798  60.0758021  28.1237943
  97.7705593  60.0388156  27.3105749  98.5671405  60.9850763  28.1834600
  94.5183684  60.1596750  27.1304125  95.3836680  59.9639559  26.7710014
  94.5861192  59.9307102  28.0573482 104.1328814  70.4494331  20.6014319
 103.3558257  70.1105491  20.1569481 104.8120295  70.4546954  19.9269284
  98.9480843  65.5689069  20.4920926  98.6430979  65.8835218  21.3431069
  99.9011285  65.6470489  20.5348259  97.3927275  71.7279292  22.1413880
  96.8648637  70.9932052  21.8287118  96.8914778  72.5053968  21.8953849
 102.3720121  69.9228313  27.2580927 101.7143795  70.6127574  27.3461055
 103.1760520  70.3124744  27.6014913  92.1246003  62.3898958  24.5020492
  92.6989755  62.1674140  23.7693685  92.7116985  62.4587653  25.2549093
 101.1825580  68.2772685  25.3084868 101.6957462  68.9102677  25.8106578
 101.8326804  67.6773881  24.9428228  92.4515590  64.4203419  18.5216377
  91.6152902  64.7578106  18.8425652  92.3120359  64.2852399  17.5843514
  94.4268670  59.2640207  23.2295561  93.7733083  58.9489224  22.6052176
  94.3849144  58.6415948  23.9555384  97.6606411  65.7522141  27.5543209
  96.7428972  65.9737088  27.3964897  98.0766554  65.8268451  26.6954916
  98.4441458  67.1513556  22.6845889  99.1913277  67.6634954  22.3753011
  98.7133048  66.8297609  23.5450283  96.7168109  69.6472097  19.6672843
  95.8079328  69.3631130  19.7645313  96.7463192  70.0671176  18.8076150
 101.9487376  73.2578687  23.4364011 101.4949703  72.4169597  23.4929201
 101.3181343  73.8940085  23.7738791 100.8920296  64.1870673  24.6664678
 100.1543052  63.6748059  24.9974921 101.1447069  63.7471054  23.8547955
 100.3920315  75.0955183  24.3713829 100.6843290  75.6560240  23.6526195
 100.9018936  75.3883744  25.1266988 100.9931923  56.9646925  25.2606448
 101.2990800  56.1044288  24.9732363 101.7184528  57.5564545  25.0605442
  87.2856279  67.3677611  23.6488046  87.0880679  66.7746972  22.9239112
  86.7302943  67.0629821  24.3663984  95.2653003  67.2600718  25.7682639
  95.3201612  66.3074554  25.6925115  94.4544205  67.4160157  26.2523937
  93.2045363  65.8777778  23.5273018  92.3913228  66.1771948  23.9338210
  93.7004357  65.4833466  24.2447500  95.3553940  75.8735534  25.4607282
  95.3130119  76.0996381  24.5315814  96.2716639  75.6398909  25.6093083
  98.8019574  66.3419602  32.3587912  99.1568962  66.5691075  33.2182377
  99.4491705  66.6737979  31.7365167 104.5317311  69.4638038  23.0637241
 104.3935210  69.6539634  22.1358430 104.1753530  70.2257421  23.5205292
  92.6959437  63.4496133  29.1434253  93.3358817  63.3084892  28.4457216
  91.8636968  63.1630646  28.7672855 104.5586691  71.5314565  28.0748512
 104.9923197  71.4389854  28.9231566 105.2718271  71.5072065  27.4368528
  93.4719741  72.7498563  25.2569245  94.2660340  72.2548884  25.0551820
  92.7611434  72.2216427  24.8936951  98.2914586  75.1316659  29.6081613
  98.3451608  75.7007595  30.3759329  97.4229367  75.3018544  29.2435650
  89.7802505  66.8941645  21.3328998  88.8500093  66.8326101  21.5498960
  89.8759977  66.3717598  20.5365639  89.6988054  63.4196458  23.9207239
  89.9594871  64.3341791  23.8116400  90.5205226  62.9520901  24.0703852
  91.1712979  64.8334215  31.0906064  91.8436033  64.6251577  30.4418713
  90.3442766  64.6356301  30.6511296 105.4202240  71.5738266  30.6081397
 105.6138130  72.4784076  30.8540672 105.3202859  71.1145685  31.4419982
  97.0738551  61.4596156  33.1071725  96.4266466  62.1586106  33.0136201
  97.8439566  61.8932300  33.4747973 100.4817349  71.7245008  36.1822278
 100.3302855  71.4955560  35.2652362 100.4722029  72.6815610  36.1953623
  97.2502685  69.2976921  31.1668544  98.1794745  69.4488081  30.9937512
  96.8293715  69.3860942  30.3117191  96.0491017  73.3227585  28.9367082
  95.9102103  72.9546370  29.8093020  95.2605613  73.8375225  28.7651040
  97.5996232  72.7009188  26.3255920  97.2646065  72.6609958  27.2213570
  97.1000178  72.0353904  25.8526330  91.5740476  68.1076818  31.8508501
  91.4360274  67.3757057  32.4520040  92.4845400  68.0185718  31.5692689
  94.2022777  67.8196778  31.3392181  94.9122396  67.1789970  31.2978799
  94.1592085  68.0709672  32.2618361 102.1909556  74.7564131  34.2598760
 102.1322102  74.0723351  33.5929343 102.5929074  75.4983121  33.8079386
  92.9151711  64.8061995  33.1587820  92.3789068  64.3552734  33.8109417
  92.3268419  64.9407904  32.4158285  91.2100254  81.5726045  27.0532479
  91.4496853  82.2044569  27.7311497  90.3669451  81.2214085  27.3397838
  92.3253970  64.2650647  15.7214284  91.4483436  64.1439448  15.3576530
  92.8011723  63.4736725  15.4693172 102.1926963  72.7203715  32.4912740
 101.3053742  72.3829637  32.6139138 102.7625514  71.9886746  32.7281505
  83.8456110  69.0527807  25.8155791  84.5327150  68.7389537  25.2276806
  83.6904239  69.9569171  25.5423042  88.6490832  63.9418003  30.2440815
  88.5649021  63.3343673  29.5091225  87.8273539  64.4327021  30.2450311
  95.7228116  77.3805167  29.4573983  95.6498288  78.1860139  29.9693287
  95.2805509  77.5797133  28.6322004  95.5117896  76.6176937  22.9676804
  94.7285418  77.1598617  23.0615029  96.2110641  77.1350917  23.3671046
  98.8214546  62.4271567  25.6111010  99.3183246  61.6741529  25.2912080
  98.0501528  62.4635883  25.0454219  98.1826800  77.2792001  31.6132141
  98.8954772  77.9139466  31.5408043  97.6916829  77.3755867  30.7972143
  99.9044327  71.1843254  23.1849433  98.9700606  71.3044716  23.0154137
 100.0820995  70.2815721  22.9209443  95.4049515  64.5688950  25.3382694
  95.0347302  64.0159990  26.0263600  95.9008607  63.9647083  24.7857694
 103.2916878  67.0260573  23.7199467 103.7577330  67.8588565  23.6459770
 103.7424379  66.5605555  24.4244726  93.2338713  75.0286445  32.4337712
  93.9348173  75.6622928  32.5867106  92.7633828  75.3701176  31.6733352
 101.3593109  73.3704394  20.7185619 101.6352953  73.2560989  21.6279493
 100.4897608  72.9721879  20.6797792 101.2633541  59.3941160  27.7590369
 100.3496621  59.6245387  27.9272576 101.6926642  59.4779604  28.6104401
 101.0339999  67.5831052  30.2590263 100.3811450  67.8306960  29.6042715
 101.4120379  66.7695190  29.9252740  97.9947173  77.6190745  24.3618433
  98.1769568  76.8012401  24.8246185  98.8180159  77.8358438  23.9243323
  98.3289339  76.5458930  21.6233481  98.8577105  76.0351385  21.0103644
  98.5917558  76.2301461  22.4879014  97.0827572  68.3250863  36.7456300
  96.4068209  68.2244992  37.4158675  97.9055206  68.1690077  37.2092297
  88.8306431  74.5622800  29.3668815  89.4159868  73.8166488  29.4996719
  88.6331270  74.8726756  30.2505479  91.6845087  77.5974047  24.3831257
  91.0155462  78.0820175  23.8995297  91.5457956  77.8443268  25.2974636
  83.4224086  67.1328400  28.0873258  83.4608186  66.5991991  28.8810376
  82.9164379  66.6063605  27.4684235  95.8250355  79.6317791  30.9813916
  96.3768663  79.7949412  31.7463001  96.1656549  80.2222228  30.3093941
  90.8014848  61.9792940  31.5835800  90.8656175  62.8407771  31.1713198
  90.7381969  61.3666942  30.8508159  90.2767121  64.0516073  35.2308835
  90.9039160  63.6693150  35.8446359  89.4195040  63.8330275  35.5964527
 100.6761230  74.4579048  36.8362570 101.2201134  75.0709006  36.3417525
 100.0948074  75.0158627  37.3529583  87.0532664  65.8592502  21.1627189
  87.3486105  64.9503180  21.1094243  86.1520700  65.8380241  20.8408192
  98.9618743  77.5799766  27.9677598  98.8369882  76.7789506  27.4588543
  99.6197834  78.0745959  27.4791568  90.5826911  63.9348499  27.1454738
  89.8613497  64.5484466  27.0062211  91.3720167  64.4706263  27.0671384
 101.0253651  75.3808786  29.5957148 100.0783986  75.2614137  29.5235475
 101.3736424  74.4931284  29.6783409  93.3853224  61.2702925  33.4195390
  93.9087626  61.5165222  34.1821699  93.1665558  62.1022960  32.9998527
  88.7820505  63.5406600  21.2866515  88.4533212  62.6603979  21.1041621
  89.1359876  63.4854268  22.1742904  98.0300084  75.1761502  25.7961500
  97.8825047  74.2478210  25.9769070  98.8553578  75.1981593  25.3118575
  91.8962329  63.8279569  21.6541992  92.2358401  64.3565491  20.9320601
  92.3434449  64.1659976  22.4300559 101.6334206  75.9990061  26.8826373
 102.5580754  75.7932922  26.7450824 101.4649509  75.7506462  27.7915714
  94.5905769  62.2116620  31.1045060  94.2502590  61.4124433  31.5065740
  93.8844776  62.5118331  30.5321894  95.2422241  59.2965933  29.5572383
  96.0648310  58.8226411  29.4351274  95.4860305  60.0756416  30.0571070
  93.8830476  62.3254191  19.8535285  94.6038838  62.7035444  19.3499002
  93.2595780  63.0443068  19.9570263  98.0261599  63.0299340  20.7893617
  98.2425213  63.9123978  20.4882446  97.5455666  62.6385553  20.0599259
  92.7660820  65.9885053  27.3664362  92.6205401  66.3025356  28.2588644
  92.2886024  66.6069954  26.8135261  94.6257203  62.9787601  27.4145252
  94.6118772  62.0828695  27.0777550  95.3429631  62.9858265  28.0483538
  96.4783334  63.4124941  29.4598379  96.2201111  64.3342012  29.4582709
  95.9468374  63.0155376  30.1498843  87.2406482  68.5290398  30.3052023
  86.6959950  69.3050206  30.4372298  88.1185832  68.8761202  30.1471145
  94.0294099  61.8601982  22.6832822  94.1510010  60.9318628  22.8823709
  93.7396141  61.8740668  21.7711137  96.8985289  59.5456892  25.8199542
  96.9206986  59.6096225  24.8651521  97.3153348  58.7061401  26.0140048
  88.0272504  67.6560294  33.1982180  87.2854240  67.8042929  33.7846810
  87.7065248  67.9168560  32.3348929  95.9716167  77.1976272  32.9962570
  96.2803293  76.9525419  33.8685270  96.7691649  77.4022911  32.5081440
  95.9936779  79.3514182  25.2267947  95.5541769  78.8590561  25.9200803
  96.7444896  78.8087149  24.9860022  88.4729118  75.5425723  25.2292575
  89.2987138  75.2429495  24.8491218  88.1223170  74.7733345  25.6782363
  93.4410651  74.8952191  27.2990248  92.8190660  74.2322896  26.9992476
  94.1115518  74.9213323  26.6163896  86.6737723  73.4612049  26.1881508
  85.8369631  73.0334223  26.0065510  86.6461368  73.6544492  27.1252299
  93.5135178  63.3733979  36.8922754  93.5623334  64.2496102  36.5100524
  94.0557692  62.8311372  36.3194398 103.9990024  73.9175102  36.1723891
 103.2085568  73.8999241  35.6328391 103.7623379  74.4563396  36.9272928
 104.1187899  70.7667569  33.4856620 104.1685904  70.6017576  34.4272143
 104.0101822  69.8994828  33.0954501  93.0024158  73.4456114  20.7748709
  93.1512278  74.1291579  20.1215382  93.8090601  73.4261204  21.2898165
 101.4091661  66.7498497  34.8015927 102.3101524  66.6104961  34.5099924
 101.4839636  66.9152951  35.7414104  95.7434467  64.1265351  33.6469113
  94.8737776  64.4198917  33.3751702  95.9793947  64.7105796  34.3676377
 105.6206096  73.1864510  33.7298641 105.3290904  73.5494491  34.5662102
 105.0078227  72.4731518  33.5511974 103.8693284  68.3097125  32.1978699
 104.3447406  68.5024771  31.3897551 102.9458849  68.3656311  31.9522083
  90.7576791  69.4721292  21.7809778  90.5122833  68.5683622  21.9789988
  90.9272705  69.4738442  20.8389256  98.4473501  60.3444968  31.1634533
  98.9655444  61.0805995  30.8381022  98.0928633  60.6508962  31.9981292
  90.0272438  65.2049649  19.2795939  89.3341683  65.2794004  18.6235975
  89.7824190  64.4409993  19.8017456  98.6986095  56.7645251  26.6835430
  98.9787848  56.0968440  27.3095856  99.4836702  56.9574346  26.1710094
 102.5694953  65.1862885  30.4307005 103.5212376  65.2860982  30.4519229
 102.3998403  64.3941153  30.9405089 100.5909333  62.2718468  30.6166406
  99.9959265  62.5523481  29.9212895 100.3059029  62.7612369  31.3883147
 105.0483031  68.4069004  29.5449305 105.0159351  67.4685005  29.7308989
 105.6583655  68.4853041  28.8115130  96.8866362  67.2765057  15.5876509
  97.8325466  67.1471266  15.6564927  96.5080607  66.5379719  16.0645937
 105.1977519  65.1980048  29.5907588 104.6816568  64.4138505  29.4037517
 106.0817468  64.8698765  29.7554107 102.8588246  58.9421063  25.5503401
 102.6613067  58.6336152  26.4346733 103.4687952  59.6682702  25.6801330
  96.7705054  71.3282804  37.0477166  97.6908064  71.5061403  37.2417212
  96.7354637  70.3838849  36.8956865  95.0709279  65.2015034  15.5231394
  94.1640734  64.9048147  15.5994108  95.3485260  64.9044852  14.6565680
  85.9887219  66.5221397  25.9730440  85.6690004  65.6686705  25.6804814
  85.4420647  66.7369975  26.7288408  89.7667127  69.2383838  29.6899947
  89.9853137  70.1700946  29.7087981  90.1792901  68.8791813  30.4754751
  96.6871345  59.7451924  21.6775635  95.8772073  59.3999009  22.0530881
  97.3755762  59.4359467  22.2663247  98.6161893  58.8229970  23.2999932
  99.1692931  59.2425424  23.9589955  98.8531979  57.8965718  23.3422888
  94.6394992  64.8117044  39.0802696  94.5391719  65.7611401  39.0114787
  94.4216534  64.4835283  38.2078766  93.8408064  62.0601969  15.6643373
  94.7027228  62.3856867  15.9239191  94.0258408  61.2733465  15.1516439
  85.8575479  70.1424309  27.9423562  85.1638951  69.7278262  27.4293516
  86.6048470  70.1844845  27.3456981 101.9940700  60.9330496  22.8078596
 101.4139369  61.5915300  22.4256649 101.7276633  60.1107840  22.3966014
 100.4444266  60.3335553  25.0099916 100.9444045  60.4452088  24.2014235
 101.0879874  60.0296606  25.6500725  94.5026262  68.2414183  37.8967757
  94.0193344  69.0414543  38.1031647  94.5887201  68.2522128  36.9435201
  87.7712222  70.0742563  25.8189577  87.7482910  70.1730250  24.8671460
  88.0812858  70.9207713  26.1406743  90.4299600  72.1318718  29.9336191
  91.3842853  72.1002660  29.8666123  90.2312123  71.6709341  30.7486417
  91.0198982  70.7019834  32.5006989  91.8391871  71.1963912  32.5241826
  91.2935790  69.7851802  32.4724556 100.7765578  63.0930586  21.8634944
  99.8891433  63.3780237  21.6455139 101.1919567  62.9324349  21.0162221
 104.1280114  63.1177107  25.5789284 104.9040504  63.6073559  25.8513900
 103.4028248  63.5435161  26.0361153  88.7849828  77.6738337  26.9506389
  88.6504296  76.9138738  26.3844387  88.3681891  78.3979237  26.4835178
 100.7506602  68.6085122  22.0785235 100.6941803  69.0653673  21.2392867
 101.3034944  67.8475806  21.9008077 104.5611408  64.3974854  22.9035354
 104.3048342  63.9971489  23.7343562 103.9364276  65.1118648  22.7785493
  91.9418954  78.5707654  27.1624832  91.8251338  79.5153087  27.0603522
  91.1211401  78.2681216  27.5510631 101.4841381  69.7989903  19.3737764
 101.4290185  69.6334174  18.4326208 100.8587436  70.5065936  19.5299953
  86.2733896  65.0357967  33.1999186  86.9192760  64.5256921  33.6886411
  86.0651047  65.7726649  33.7742611  98.7987288  72.1038815  38.6991327
  99.6678448  72.2779467  38.3377961  98.3194040  72.9233232  38.5767056
  94.7937507  59.2998012  18.9523082  94.7816176  60.2439852  19.1091353
  95.6860928  59.1168157  18.6582543  92.9673468  79.2235916  30.3780760
  93.8700715  79.2559526  30.6947255  92.7410839  78.2936367  30.3927096
  94.7227070  77.9766902  27.0390839  93.7722701  77.9768764  26.9255211
  95.0259557  77.2299637  26.5226873  98.6089626  55.8940789  23.2069019
  97.8422022  55.3399275  23.3525701  99.0200331  55.9662657  24.0683171
  90.6131387  62.1825585  37.2974200  91.4762849  61.8262389  37.5077525
  90.0396798  61.8439479  37.9849604 104.4696514  87.7026833  32.9463515
 104.1786380  88.6072463  32.8310182 105.1053499  87.7443360  33.6607585
 105.3952721  85.0803681  29.5364875 105.9916293  84.8559703  28.8221838
 105.4527693  84.3388427  30.1390323 100.2407692  83.4835318  26.8093803
 100.3700073  83.7369797  27.7233214  99.5605143  84.0763026  26.4898458
 105.1570781  84.1345887  35.1263611 105.8985466  84.6730931  34.8498434
 104.4507767  84.7612176  35.2835162 103.8932145  81.2885535  35.9278921
 103.2630806  81.9701816  36.1614318 103.7868233  81.1768617  34.9832059
  99.1877118  80.9557331  26.8544845  98.3976171  81.2114860  26.3784955
  99.6788365  81.7705669  26.9596885  97.4714820  81.2087822  29.2859836
  97.7222859  82.0934832  29.5517412  98.0074369  81.0292423  28.5134927
 103.1712888  75.5906301  38.2904172 102.7779833  75.0372500  38.9651816
 103.9879028  75.9016880  38.6810689 101.2322187  82.1920548  34.1602658
 101.1175702  81.2905805  34.4609757 100.3766705  82.4384244  33.8087475
 102.9639757  77.7190876  24.5020492 103.5383509  77.4966058  23.7693685
 103.5510740  77.7879571  25.2549093 105.2662425  74.5932125  23.2295561
 104.6126837  74.2781142  22.6052176 105.2242899  73.9707865  23.9555384
 103.5353192  78.7788051  29.1434253 104.1752571  78.6376810  28.4457216
 102.7030722  78.4922564  28.7672855 100.5381808  78.7488376  23.9207239
 100.7988626  79.6633709  23.8116400 101.3598981  78.2812818  24.0703852
 102.0106734  80.1626133  31.0906064 102.6829787  79.9543495  30.4418713
 101.1836520  79.9648219  30.6511296 102.4134231  83.4368736  31.8508501
 102.2754029  82.7048975  32.4520040 103.3239154  83.3477636  31.5692689
 105.0416531  83.1488695  31.3392181 105.7516150  82.5081887  31.2978799
 104.9985840  83.4001590  32.2618361 103.7545465  80.1353913  33.1587820
 103.2182822  79.6844652  33.8109417 103.1662174  80.2699822  32.4158285
  94.6849865  84.3819724  25.8155791  95.3720904  84.0681454  25.2276806
  94.5297993  85.2861089  25.5423042  99.4884587  79.2709921  30.2440815
  99.4042775  78.6635590  29.5091225  98.6667293  79.7618939  30.2450311
 104.0732468  90.3578362  32.4337712 104.7741927  90.9914845  32.5867106
 103.6027583  90.6993094  31.6733352  99.6700186  89.8914717  29.3668815
 100.2553623  89.1458405  29.4996719  99.4725024  90.2018674  30.2505479
  94.2617841  82.4620318  28.0873258  94.3001940  81.9283908  28.8810376
  93.7558134  81.9355523  27.4684235 101.6408603  77.3084858  31.5835800
 101.7049929  78.1699689  31.1713198 101.5775723  76.6958860  30.8508159
 101.1160876  79.3807991  35.2308835 101.7432914  78.9985068  35.8446359
 100.2588794  79.1622193  35.5964527 101.4220665  79.2640416  27.1454738
 100.7007251  79.8776384  27.0062211 102.2113921  79.7998181  27.0671384
 104.2246979  76.5994843  33.4195390 104.7481381  76.8457139  34.1821699
 104.0059312  77.4314878  32.9998527 105.4299524  77.5408538  31.1045060
 105.0896344  76.7416351  31.5065740 104.7238530  77.8410249  30.5321894
 103.6054574  81.3176971  27.3664362 103.4599155  81.6317274  28.2588644
 103.1279778  81.9361871  26.8135261  98.0800237  83.8582315  30.3052023
  97.5353705  84.6342123  30.4372298  98.9579586  84.2053120  30.1471145
  98.8666258  82.9852212  33.1982180  98.1247994  83.1334847  33.7846810
  98.5459003  83.2460477  32.3348929 104.3528933  78.7025897  36.8922754
 104.4017088  79.5788019  36.5100524 104.8951447  78.1603290  36.3194398
  96.8280974  81.8513315  25.9730440  96.5083758  80.9978623  25.6804814
  96.2814402  82.0661893  26.7288408 100.6060881  84.5675756  29.6899947
 100.8246891  85.4992864  29.7087981 101.0186655  84.2083730  30.4754751
 105.4788747  80.1408962  39.0802696 105.3785474  81.0903319  39.0114787
 105.2610289  79.8127201  38.2078766  96.6969234  85.4716226  27.9423562
  96.0032705  85.0570179  27.4293516  97.4442225  85.5136763  27.3456981
 105.3420017  83.5706101  37.8967757 104.8587098  84.3706461  38.1031647
 105.4280956  83.5814045  36.9435201 101.2693354  87.4610635  29.9336191
 102.2236608  87.4294578  29.8666123 101.0705878  87.0001259  30.7486417
 101.8592736  86.0311751  32.5006989 102.6785625  86.5255830  32.5241826
 102.1329544  85.1143719  32.4724556  97.1127651  80.3649885  33.1999186
  97.7586514  79.8548839  33.6886411  96.9044802  81.1018567  33.7742611
 101.4525142  77.5117502  37.2974200 102.3156603  77.1554307  37.5077525
 100.8790552  77.1731397  37.9849604  61.1121498   3.3921284  19.6708822
  60.8211364   4.2966915  19.5555488  61.7478482   3.4337812  20.3852892
  66.0711383   3.0782700  16.6658616  65.7712106   3.9807739  16.5574423
  65.7262442   2.8114883  17.5179769  67.5979919   2.5270670  14.2033368
  66.9688781   2.6916384  13.5009436  67.2105581   2.9412280  14.9744332
  69.8465910   3.9857022  16.3295432  70.6683354   3.5837210  16.0478114
  69.8428313   3.8825257  17.2811548  63.6122514   3.5341066  18.4856143
  63.6766946   3.9961473  19.3214315  62.9033438   2.9038431  18.6138453
  64.9539008   5.8232740  22.4835465  64.5102862   5.0369118  22.1656370
  65.6156221   6.0111890  21.8179356  59.7126129   7.3528541  17.0096144
  60.2633554   7.2245605  16.2373138  58.8737605   7.6523430  16.6591037
  67.0520246   6.1035540  20.5116867  67.0338721   6.9244421  20.0197136
  67.9740166   5.9789615  20.7367008  63.5093300   3.6179669  21.3540375
  64.0421637   2.8567957  21.1239683  62.9807381   3.3253321  22.0964529
  67.8739053   6.1141553  11.0959136  68.1662027   6.6746610  10.3771501
  68.3837674   6.4070114  11.8512295  65.7733323   6.1503029  16.3326919
  65.8270346   6.7193965  17.1004635  64.9048105   6.3204914  15.9680956
  67.9636087   2.7431378  22.9067585  67.8121593   2.5141930  21.9897668
  67.9540766   3.7001979  22.9198930  63.5309755   4.3413955  15.6612389
  63.3920841   3.9732739  16.5338327  62.7424351   4.8561594  15.4896347
  69.6728293   5.7750500  20.9844067  69.6140840   5.0909721  20.3174650
  70.0747812   6.5169490  20.5324693  58.6918992  12.5912414  13.7777785
  58.9315590  13.2230938  14.4556804  57.8488189  12.2400454  14.0643145
  63.2046854   8.3991537  16.1819289  63.1317026   9.2046508  16.6938594
  62.7624247   8.5983503  15.3567311  65.6645538   8.2978371  18.3377448
  66.3773510   8.9325836  18.2653350  65.1735566   8.3942237  17.5217450
  60.7157451   6.0472814  19.1583019  61.4166911   6.6809297  19.3112413
  60.2452566   6.3887546  18.3978658  65.4765911   8.6377115  11.0863740
  65.6588306   7.8198771  11.5491492  66.2998897   8.8544807  10.6488630
  56.3125169   5.5809169  16.0914122  56.8978606   4.8352857  16.2242026
  56.1150008   5.8913126  16.9750786  63.3069093  10.6504160  17.7059222
  63.8587401  10.8135782  18.4708308  63.6475287  11.2408598  17.0339247
  68.1579967   5.4765418  23.5607877  68.7019871   6.0895376  23.0662832
  67.5766812   6.0344996  24.0774890  66.4437480   8.5986136  14.6922905
  66.3188620   7.7975876  14.1833850  67.1016571   9.0932329  14.2036874
  68.5072389   6.3995156  16.3202455  67.5602724   6.2800507  16.2480781
  68.8555162   5.5117654  16.4028716  65.5118822   6.1947872  12.5206807
  65.3643784   5.2664579  12.7014377  66.3372316   6.2167963  12.0363882
  69.1152944   7.0176431  13.6071680  70.0399491   6.8119292  13.4696131
  68.9468247   6.7692832  14.5161021  63.4534904   8.2162642  19.7207877
  63.7622031   7.9711789  20.5930576  64.2510386   8.4209280  19.2326747
  63.4755516  10.3700551  11.9513253  63.0360507   9.8776930  12.6446110
  64.2263633   9.8273519  11.7105329  60.9229389   5.9138560  14.0235555
  60.3009398   5.2509265  13.7237783  61.5934255   5.9399692  13.3409203
  71.4808762   4.9361472  22.8969198  70.6904305   4.9185611  22.3573697
  71.2442116   5.4749765  23.6518235  64.2523792   2.3469173  23.7722472
  65.1726802   2.5247772  23.9662519  64.2173375   1.4025218  23.6202172
  57.9118337   3.1505087  16.6581498  58.8661591   3.1189029  16.5911429
  57.7130861   2.6895711  17.4731724  58.5017720   1.7206203  19.2252296
  59.3210609   2.2150282  19.2487133  58.7754527   0.8038171  19.1969863
  59.4237692   9.5894024  13.8870138  59.3070076  10.5339456  13.7848829
  58.6030138   9.2867585  14.2755938  66.2806026   3.1225184  25.4236633
  67.1497186   3.2965837  25.0623268  65.8012777   3.9419601  25.3012363
  60.4492206  10.2422286  17.1026067  61.3519453  10.2745896  17.4192562
  60.2229576   9.3122736  17.1172403  62.2045808   8.9953272  13.7636145
  61.2541439   8.9955134  13.6500518  62.5078294   8.2486007  13.2472180
  77.9398502  14.8313810  14.8281908  78.5776912  14.7120558  14.1245248
  77.8219345  15.7794654  14.8869860  74.7488208  14.7841239  14.7643433
  74.4106720  14.6682303  13.8763967  75.6177976  14.3832404  14.7444439
  70.6075024  16.6376715  10.7540324  70.0439889  16.5466652   9.9856611
  70.4927419  15.8176619  11.2342816  75.2307991  15.9376090  20.7229638
  75.2196632  15.5428889  19.8510142  75.3928630  15.2042163  21.3163410
  68.1539456  18.1327907  13.5924544  68.9460748  17.7918731  13.1770843
  68.3936106  18.2422882  14.5126697  76.1874582  20.3047683   6.0654788
  75.5362562  20.8901763   5.6788802  76.9818945  20.8353878   6.1249826
  70.1130210  17.3936820   6.4641923  70.8861086  16.8465807   6.3254799
  70.4655608  18.2581069   6.6756384  71.9515252  18.7213202  19.6708822
  71.6605118  19.6258833  19.5555488  72.5872237  18.7629730  20.3852892
  72.8771459  16.0990051  16.2610182  73.4735031  15.8746073  15.5467145
  72.9346431  15.3574796  16.8635630  77.4939770  12.5565264  11.9035116
  78.2802859  12.1384687  11.5525533  77.7578475  13.4611356  12.0716764
  72.1692776  15.4557592   6.2984748  72.0529034  14.7802495   6.9665832
  72.2795036  14.9689966   5.4816901  74.5124317  14.9167739  10.0031437
  74.1482524  14.3898360  10.7144358  75.3691433  14.5266208   9.8297922
  76.9105137  18.4074618  16.6658616  76.6105860  19.3099656  16.5574423
  76.5656197  18.1406801  17.5179769  70.3617619  14.8588414  12.6995320
  69.4368115  14.7264629  12.9073012  70.6102032  15.6382634  13.1965263
  80.3102281  10.9257158  14.3456053  79.4019158  10.8572566  14.0514814
  80.2589877  11.4029103  15.1737879  67.7226430  14.5021688  13.5339109
  67.8518811  14.7556167  14.4478521  67.0423881  15.0949396  13.2143764
  71.8925917  25.1718938   9.6329583  71.8149947  26.1226763   9.7118064
  71.2887561  24.8264810  10.2904510  74.3843147  12.3446803  22.2890950
  73.6076481  12.9040724  22.2793815  75.0233710  12.8303586  22.8105820
  82.1763927   9.1273596  16.1233927  81.5338308   9.4206129  15.4773722
  81.6718856   9.0126517  16.9287124  72.6389519  15.1532257  21.8508917
  73.3804203  15.6917301  21.5743741  71.9326505  15.7798545  22.0080469
  78.1144859  17.2961397  20.4481079  78.5228215  16.8543808  19.7035711
  77.3922120  16.7214025  20.7015272  74.4675929  12.2334004  17.8214636
  75.3137124  12.6573418  17.9649285  74.4074566  11.5767628  18.5153199
  78.4373673  17.8562588  14.2033368  77.8082536  18.0208302  13.5009436
  78.0499335  18.2704197  14.9744332  82.3162905  18.7917026  11.5577731
  81.6313943  19.1715927  11.0074765  82.4006755  19.4012352  12.2909679
  77.6175374   9.8938372  19.4795809  77.3736306  10.6480433  18.9430085
  77.8935305  10.2723720  20.3143056  79.5713837  16.4376985  18.1573075
  79.7830732  17.0808745  17.4807456  79.5243585  15.6039301  17.6895005
  77.1740066   9.0494805  15.0609647  76.3124545   9.3476059  15.3526385
  77.2002501   9.2665204  14.1290680  73.9901635  17.5936996  11.4683453
  74.4539981  17.8724699  10.6788075  73.7258433  16.6920440  11.2856543
  70.8825716  17.1408477  14.4063216  71.4527073  17.5695746  13.7680701
  71.4733828  16.8591062  15.1047402  72.9270521  13.7160148   8.2773018
  73.6294565  14.1681192   8.7446944  72.5951150  13.0743967   8.9052911
  71.3750883  12.3071905  22.6524227  70.7449543  12.9888186  22.8859624
  71.2686971  12.1954987  21.7077366  66.6695855  11.9743701  13.5790152
  65.8794909  12.2301229  13.1030262  67.1607103  12.7892039  13.6842192
  80.6859665  19.3148940  16.3295432  81.5077109  18.9129127  16.0478114
  80.6822068  19.2117174  17.2811548  68.6210601  12.3388280  10.5373628
  67.8241764  12.4506974  11.0557124  68.3936193  12.6774932   9.6714519
  74.4516268  18.8632983  18.4856143  74.5160701  19.3253391  19.3214315
  73.7427192  18.2330348  18.6138453  64.9533558  12.2274191  16.0105142
  65.2041597  13.1121201  16.2762718  65.4893107  12.0478793  15.2380234
  74.1664286  20.5301091   8.3535123  74.0309961  21.3752627   8.7819971
  74.7074098  20.7320369   7.5901057  70.6531626   6.6092671  25.0149478
  70.2598571   6.0558869  25.6897123  71.4697766   6.9203249  25.4055996
  67.6193683  18.0476529   8.9263048  68.1318204  18.8419779   9.0768613
  68.2716396  17.3502819   8.8596650  69.4288568  21.1642285  11.0085801
  69.6055196  22.0860250  10.8206785  70.2245402  20.8500704  11.4380181
  73.5699587   8.0250550  22.6069735  74.3109300   8.6257703  22.5274197
  73.8017509   7.2828188  22.0487778  68.7140925  13.2106917  20.8847965
  68.5994440  12.3092174  21.1855064  67.8585442  13.4570614  20.5332781
  75.7932762  21.1524657  22.4835465  75.3496617  20.3661036  22.1656370
  76.4549976  21.3403808  21.8179356  70.5519884  22.6820459  17.0096144
  71.1027309  22.5537522  16.2373138  69.7131359  22.9815348  16.6591037
  77.8914000  21.4327457  20.5116867  77.8732476  22.2536338  20.0197136
  78.8133920  21.3081533  20.7367008  74.3487055  18.9471587  21.3540375
  74.8815391  18.1859875  21.1239683  73.8201136  18.6545239  22.0964529
  65.5842600  16.3765183   9.7022619  66.4217822  16.7862192   9.4856327
  65.7620868  15.4364625   9.6722813  76.5953290   6.4236308  14.8483250
  76.0918086   6.3866443  14.0351055  76.8883897   7.3329051  14.9079907
  72.8396176   6.5075038  13.8549432  73.7049173   6.3117846  13.4955321
  72.9073685   6.2785389  14.7818788  75.7139767  18.0757579   8.8659187
  75.1861129  17.3410339   8.5532424  75.2127270  18.8532256   8.6199155
  80.6932613  16.2706600  13.9826233  80.0356288  16.9605861  14.0706362
  81.4973012  16.6603032  14.3260220  70.4458495   8.7377246  11.2265798
  71.0202247   8.5152427  10.4938991  71.0329477   8.8065940  11.9794400
  79.5038072  14.6250972  12.0330175  80.0169954  15.2580964  12.5351885
  80.1539296  14.0252168  11.6673535  76.7660446  24.6035297   4.7890846
  76.0922145  24.9066994   5.3975804  77.1526268  25.4064377   4.4396303
  75.9818903  12.1000428  14.2788515  75.0641464  12.3215375  14.1210204
  76.3979047  12.1746738  13.4200223  80.2699868  19.6056974  10.1609318
  79.8162195  18.7647884  10.2174508  79.6393835  20.2418372  10.4984098
  78.7132808  21.4433471  11.0959136  79.0055782  22.0038528  10.3771501
  79.2231428  21.7362032  11.8512295  65.6068771  13.7155899  10.3733352
  65.4093171  13.1225259   9.6484419  65.0515435  13.4108109  11.0909291
  73.5865495  13.6079005  12.4927945  73.6414105  12.6552841  12.4170422
  72.7756697  13.7638444  12.9769244  71.5257855  12.2256065  10.2518324
  70.7125720  12.5250235  10.6583516  72.0216849  11.8311754  10.9692807
  73.6766433  22.2213822  12.1852589  73.6342612  22.4474668  11.2561121
  74.5929132  21.9877196  12.3338390  77.1232067  12.6897889  19.0833218
  77.4781454  12.9169362  19.9427684  77.7704198  13.0216266  18.4610473
  71.0171930   9.7974420  15.8679559  71.6571309   9.6563179  15.1702523
  70.1849460   9.5108934  15.4918161  82.8799183  17.8792852  14.7993819
  83.3135690  17.7868141  15.6476873  83.5930764  17.8550353  14.1613835
  71.7932234  19.0976851  11.9814552  72.5872832  18.6027171  11.7797127
  71.0823926  18.5694714  11.6182257  76.6127078  21.4794946  16.3326919
  76.6664100  22.0485883  17.1004635  75.7441859  21.6496831  15.9680956
  68.1014997  13.2419932   8.0574304  67.1712585  13.1804388   8.2744266
  68.1972469  12.7195885   7.2610946  68.0200546   9.7674745  10.6452546
  68.2807363  10.6820079  10.5361706  68.8417718   9.2999188  10.7949159
  69.4925471  11.1812502  17.8151371  70.1648525  10.9729865  17.1664019
  68.6655258  10.9834588  17.3756603  83.7414733  17.9216553  17.3326704
  83.9350623  18.8262363  17.5785979  83.6415351  17.4623972  18.1665289
  75.3951043   7.8074443  19.8317031  74.7478958   8.5064393  19.7381508
  76.1652059   8.2410587  20.1993280  78.8029841  18.0723296  22.9067585
  78.6515348  17.8433847  21.9897668  78.7934521  19.0293897  22.9198930
  75.5715178  15.6455208  17.8913851  76.5007238  15.7966368  17.7182818
  75.1506208  15.7339229  17.0362498  74.3703510  19.6705873  15.6612389
  74.2314595  19.3024657  16.5338327  73.5818106  20.1853512  15.4896347
  74.9651661  24.7714969   7.0037925  75.1403417  24.3003012   7.8183548
  74.2784450  25.3980735   7.2319186  75.9208725  19.0487475  13.0501227
  75.5858557  19.0088245  13.9458876  75.4212670  18.3832191  12.5771637
  69.8952969  14.4555105  18.5753808  69.7572767  13.7235344  19.1765347
  70.8057892  14.3664006  18.2937995  72.5235269  14.1675065  18.0637487
  73.2334888  13.5268257  18.0224106  72.4804577  14.4187960  18.9863668
  80.5122048  21.1042418  20.9844067  80.4534594  20.4201638  20.3174650
  80.9141566  21.8461408  20.5324693  71.2364203  11.1540283  19.8833127
  70.7001560  10.7031021  20.5354723  70.6480912  11.2886191  19.1403591
  69.5312747  27.9204332  13.7777785  69.7709345  28.5522856  14.4556804
  68.6881943  27.5692372  14.0643145  80.5139455  19.0682002  19.2158046
  79.6266234  18.7307924  19.3384445  81.0838006  18.3365033  19.4526812
  62.1668602  15.4006094  12.5401098  62.8539642  15.0867824  11.9522113
  62.0116731  16.3047458  12.2668349  66.9703324  10.2896290  16.9686121
  66.8861513   9.6821960  16.2336531  66.1486031  10.7805309  16.9695618
  74.0440609  23.7283454  16.1819289  73.9710780  24.5338426  16.6938594
  73.6018002  23.9275420  15.3567311  73.8330388  22.9655224   9.6922111
  73.0497910  23.5076905   9.7860335  74.5323133  23.4829204  10.0916352
  76.5039292  23.6270288  18.3377448  77.2167264  24.2617753  18.2653350
  76.0129321  23.7234154  17.5217450  78.2256819  17.5321541   9.9094740
  77.2913098  17.6523004   9.7399444  78.4033488  16.6294008   9.6454750
  73.7262007  10.9167237  12.0628001  73.3559795  10.3638277  12.7508907
  74.2221100  10.3125370  11.5103001  71.5551206  21.3764732  19.1583019
  72.2560665  22.0101215  19.3112413  71.0846321  21.7179463  18.3978658
  79.3552492  13.9309339  16.9835569  78.7023942  14.1785247  16.3288022
  79.7332872  13.1173478  16.6498047  76.3159666  23.9669033  11.0863740
  76.4982060  23.1490688  11.5491492  77.1392652  24.1836725  10.6488630
  76.6501831  22.8937218   8.3478788  77.1789597  22.3829672   7.7348950
  76.9130051  22.5779748   9.2124321  75.4040065  14.6729150  23.4701606
  74.7280702  14.5723280  24.1403982  76.2267699  14.5168364  23.9337604
  67.1518924  20.9101087  16.0914122  67.7372361  20.1644775  16.2242026
  66.9543762  21.2205044  16.9750786  70.0057579  23.9452334  11.1076564
  69.3367954  24.4298462  10.6240604  69.8670449  24.1921555  12.0219943
  61.7436578  13.4806687  14.8118565  61.7820678  12.9470278  15.6055683
  61.2376871  12.9541893  14.1929542  74.1462848  25.9796078  17.7059222
  74.6981156  26.1427699  18.4708308  74.4869041  26.5700516  17.0339247
  69.1227341   8.3271228  18.3081107  69.1868667   9.1886059  17.8958505
  69.0594461   7.7145229  17.5753466  68.5979613  10.3994360  21.9554141
  69.2251652  10.0171437  22.5691666  67.7407532  10.1808562  22.3209834
  78.9973722  20.8057335  23.5607877  79.5413626  21.4187294  23.0662832
  78.4160567  21.3636914  24.0774890  77.2831235  23.9278053  14.6922905
  77.1582374  23.1267793  14.1833850  77.9410326  24.4224247  14.2036874
  68.9039403  10.2826786  13.8700045  68.1825989  10.8962754  13.7307518
  69.6932659  10.8184551  13.7916691  79.3466143  21.7287073  16.3202455
  78.3996479  21.6092425  16.2480781  79.6948916  20.8409571  16.4028716
  71.7065717   7.6181212  20.1440696  72.2300118   7.8643509  20.9067006
  71.4878050   8.4501247  19.7243834  76.3512577  21.5239790  12.5206807
  76.2037539  20.5956497  12.7014377  77.1766070  21.5459880  12.0363882
  70.2174821  10.1757857   8.3787299  70.5570893  10.7043778   7.6565907
  70.6646941  10.5138263   9.1545866  79.9546698  22.3468348  13.6071680
  80.8793246  22.1411210  13.4696131  79.7862002  22.0984750  14.5161021
  72.9118262   8.5594907  17.8290367  72.5715082   7.7602721  18.2311047
  72.2057268   8.8596618  17.2567200  73.5634733   5.6444220  16.2817690
  74.3860803   5.1704698  16.1596580  73.8072797   6.4234704  16.7816376
  71.0873312  12.3363341  14.0909669  70.9417893  12.6503644  14.9833950
  70.6098516  12.9548241  13.5380567  72.9469695   9.3265889  14.1390558
  72.9331264   8.4306982  13.8022856  73.6642123   9.3336552  14.7728844
  74.7995826   9.7603229  16.1843686  74.5413604  10.6820299  16.1828016
  74.2680866   9.3633663  16.8744150  79.7442015  22.8654016   8.9633771
  79.9178892  22.3000438   8.2107623  80.2370906  23.6654911   8.7813261
  65.5618974  14.8768685  17.0297330  65.0172442  15.6528493  17.1617604
  66.4398324  15.2239489  16.8716451  72.3506591   8.2080269   9.4078128
  72.4722502   7.2796915   9.6069016  72.0608633   8.2218955   8.4956444
  66.3484996  14.0038581  19.9227487  65.6066732  14.1521217  20.5092117
  66.0277741  14.2646847  19.0594236  74.2928659  23.5454559  19.7207877
  74.6015785  23.3003706  20.5930576  75.0904141  23.7501198  19.2326747
  74.3149271  25.6992469  11.9513253  73.8754261  25.2068848  12.6446110
  75.0657388  25.1565437  11.7105329  66.7941610  21.8904010  11.9537881
  67.6199630  21.5907782  11.5736525  66.4435662  21.1211632  12.4027670
  71.7623143  21.2430478  14.0235555  71.1403152  20.5801183  13.7237783
  72.4328010  21.2691610  13.3409203  64.9950215  19.8090336  12.9126815
  64.1582123  19.3812511  12.7310816  64.9673860  20.0022780  13.8497606
  71.8347671   9.7212266  23.6168061  71.8835826  10.5974389  23.2345831
  72.3770185   9.1789659  23.0439704  82.3202516  20.2653389  22.8969198
  81.5298060  20.2477528  22.3573697  82.0835871  20.8041683  23.6518235
  82.4400391  17.1145856  20.2101927  82.4898396  16.9495863  21.1517449
  82.3314315  16.2473115  19.8199807  71.3236650  19.7934401   7.4994015
  71.4724770  20.4769866   6.8460688  72.1303093  19.7739492   8.0143471
  79.7304154  13.0976784  21.5261233  80.6314016  12.9583249  21.2345231
  79.8052128  13.2631239  22.4659411  74.0646959  10.4743639  20.3714420
  73.1950268  10.7677205  20.0997008  74.3006439  11.0584084  21.0921683
  83.9418588  19.5342797  20.4543948  83.6503396  19.8972778  21.2907409
  83.3290719  18.8209806  20.2757280  82.1905776  14.6575412  18.9224006
  82.6659898  14.8503058  18.1142857  81.2671342  14.7134598  18.6767390
  69.0789283  15.8199579   8.5055084  68.8335325  14.9161909   8.7035295
  69.2485197  15.8216730   7.5634562  76.7685993   6.6923255  17.8879840
  77.2867937   7.4284282  17.5626329  76.4141126   6.9987249  18.7226599
  74.8232056  22.2882532   4.9705763  74.2506023  22.9072719   4.5176235
  75.3964849  22.8381894   5.5045685  80.8907445  11.5341172  17.1552312
  81.8424868  11.6339270  17.1764536  80.7210896  10.7419441  17.6650396
  78.9121825   8.6196755  17.3411713  78.3171757   8.9001768  16.6458201
  78.6271522   9.1090656  18.1128454  78.0429315  22.5719682   6.1014345
  78.9759988  22.5065244   6.3047221  77.9552528  23.4075949   5.6428878
  83.3695523  14.7547292  16.2694611  83.3371843  13.8163292  16.4554295
  83.9796147  14.8331328  15.5360436  75.0917547  17.6761091  23.7722472
  76.0120556  17.8539690  23.9662519  75.0567130  16.7317136  23.6202172
  64.3099712  12.8699684  12.6975747  63.9902496  12.0164993  12.4050121
  63.7633140  13.0848263  13.4533714  68.0879619  15.5862125  16.4145254
  68.3065629  16.5179233  16.4333287  68.5005393  15.2270100  17.2000057
  72.9607484  11.1595331  25.8048002  72.8604211  12.1089688  25.7360094
  72.7429026  10.8313570  24.9324073  64.1787972  16.4902596  14.6668869
  63.4851443  16.0756549  14.1538823  64.9260963  16.5323132  14.0702288
  72.8238754  14.5892470  24.6213064  72.3405836  15.3892830  24.8276953
  72.9099693  14.6000415  23.6680508  66.0924714  16.4220850  12.5434883
  66.0695402  16.5208537  11.5916767  66.4025351  17.2686001  12.8652050
  68.7512092  18.4797005  16.6581498  69.7055345  18.4480947  16.5911429
  68.5524616  18.0187629  17.4731724  69.3411474  17.0498121  19.2252296
  70.1604363  17.5442199  19.2487133  69.6148282  16.1330089  19.1969863
  67.1062321  24.0216624  13.6751696  66.9716789  23.2617025  13.1089694
  66.6894383  24.7457524  13.2080485  70.2631447  24.9185941  13.8870138
  70.1463831  25.8631374  13.7848829  69.4423893  24.6159503  14.2755938
  64.5946388  11.3836255  19.9244493  65.2405252  10.8735209  20.4131718
  64.3863539  12.1204936  20.4987918  77.1199781  18.4517102  25.4236633
  77.9890940  18.6257754  25.0623268  76.6406532  19.2711519  25.3012363
  71.2885961  25.5714203  17.1026067  72.1913207  25.6037813  17.4192562
  71.0623331  24.6414654  17.1172403  73.0439563  24.3245190  13.7636145
  72.0935194  24.3247051  13.6500518  73.3472049  23.5777924  13.2472180
  68.9343879   8.5303872  24.0219507  69.7975341   8.1740677  24.2322831
  68.3609290   8.1917767  24.7094911  88.7792256  30.1605728  14.8281908
  89.4170666  30.0412475  14.1245248  88.6613099  31.1086572  14.8869860
  85.5881963  30.1133156  14.7643433  85.2500474  29.9974221  13.8763967
  86.4571731  29.7124321  14.7444439  81.4468778  31.9668633  10.7540324
  80.8833643  31.8758570   9.9856611  81.3321173  31.1468537  11.2342816
  86.0701746  31.2668008  20.7229638  86.0590386  30.8720806  19.8510142
  86.2322385  30.5334081  21.3163410  78.9933210  33.4619824  13.5924544
  79.7854502  33.1210649  13.1770843  79.2329860  33.5714799  14.5126697
  87.0268337  35.6339600   6.0654788  86.3756317  36.2193681   5.6788802
  87.8212700  36.1645795   6.1249826  80.9523964  32.7228737   6.4641923
  81.7254840  32.1757725   6.3254799  81.3049363  33.5872987   6.6756384
  82.7909007  34.0505120  19.6708822  82.4998873  34.9550751  19.5555488
  83.4265991  34.0921647  20.3852892  83.7165214  31.4281968  16.2610182
  84.3128786  31.2037991  15.5467145  83.7740185  30.6866714  16.8635630
  88.3333525  27.8857182  11.9035116  89.1196614  27.4676605  11.5525533
  88.5972229  28.7903274  12.0716764  83.0086531  30.7849510   6.2984748
  82.8922789  30.1094413   6.9665832  83.1188791  30.2981883   5.4816901
  85.3518072  30.2459657  10.0031437  84.9876279  29.7190278  10.7144358
  86.2085187  29.8558126   9.8297922  91.2567372  21.5353989  17.2662703
  90.9250697  22.4049400  17.0423918  90.6612986  21.2190273  17.9456733
  87.7498892  33.7366535  16.6658616  87.4499615  34.6391574  16.5574423
  87.4049951  33.4698718  17.5179769  81.2011373  30.1880332  12.6995320
  80.2761870  30.0556546  12.9073012  81.4495786  30.9674551  13.1965263
  91.1496036  26.2549075  14.3456053  90.2412913  26.1864484  14.0514814
  91.0983631  26.7321020  15.1737879  78.5620184  29.8313606  13.5339109
  78.6912565  30.0848085  14.4478521  77.8817636  30.4241314  13.2143764
  82.7319672  40.5010856   9.6329583  82.6543701  41.4518681   9.7118064
  82.1281315  40.1556728  10.2904510  85.2236901  27.6738721  22.2890950
  84.4470235  28.2332641  22.2793815  85.8627464  28.1595504  22.8105820
  93.0157682  24.4565514  16.1233927  92.3732062  24.7498047  15.4773722
  92.5112610  24.3418434  16.9287124  83.4783274  30.4824174  21.8508917
  84.2197958  31.0209218  21.5743741  82.7720259  31.1090463  22.0080469
  88.9538613  32.6253315  20.4481079  89.3621969  32.1835725  19.7035711
  88.2315875  32.0505942  20.7015272  85.3069683  27.5625922  17.8214636
  86.1530878  27.9865335  17.9649285  85.2468321  26.9059546  18.5153199
  89.2767428  33.1854505  14.2033368  88.6476290  33.3500220  13.5009436
  88.8893090  33.5996115  14.9744332  93.1556660  34.1208943  11.5577731
  92.4707698  34.5007845  11.0074765  93.2400509  34.7304270  12.2909679
  88.4569129  25.2230290  19.4795809  88.2130061  25.9772351  18.9430085
  88.7329059  25.6015638  20.3143056  90.4107591  31.7668902  18.1573075
  90.6224487  32.4100662  17.4807456  90.3637340  30.9331219  17.6895005
  88.0133820  24.3786723  15.0609647  87.1518299  24.6767977  15.3526385
  88.0396255  24.5957122  14.1290680  84.8295390  32.9228914  11.4683453
  85.2933735  33.2016617  10.6788075  84.5652188  32.0212358  11.2856543
  81.7219471  32.4700395  14.4063216  82.2920828  32.8987663  13.7680701
  82.3127583  32.1882980  15.1047402  83.7664276  29.0452066   8.2773018
  84.4688319  29.4973110   8.7446944  83.4344904  28.4035885   8.9052911
  82.2144637  27.6363823  22.6524227  81.5843298  28.3180103  22.8859624
  82.1080725  27.5246904  21.7077366  77.5089610  27.3035619  13.5790152
  76.7188664  27.5593147  13.1030262  78.0000857  28.1183956  13.6842192
  91.5253419  34.6440858  16.3295432  92.3470863  34.2421045  16.0478114
  91.5215822  34.5409092  17.2811548  79.4604355  27.6680198  10.5373628
  78.6635518  27.7798892  11.0557124  79.2329947  28.0066850   9.6714519
  85.2910023  34.1924901  18.4856143  85.3554455  34.6545308  19.3214315
  84.5820947  33.5622266  18.6138453  75.7927313  27.5566109  16.0105142
  76.0435351  28.4413119  16.2762718  76.3286861  27.3770711  15.2380234
  85.0058040  35.8593009   8.3535123  84.8703715  36.7044544   8.7819971
  85.5467853  36.0612286   7.5901057  81.4925380  21.9384588  25.0149478
  81.0992326  21.3850787  25.6897123  82.3091520  22.2495167  25.4055996
  78.4587438  33.3768447   8.9263048  78.9711958  34.1711697   9.0768613
  79.1110151  32.6794737   8.8596650  80.2682323  36.4934203  11.0085801
  80.4448951  37.4152168  10.8206785  81.0639156  36.1792622  11.4380181
  84.4093341  23.3542468  22.6069735  85.1503054  23.9549621  22.5274197
  84.6411264  22.6120105  22.0487778  79.5534679  28.5398835  20.8847965
  79.4388194  27.6384092  21.1855064  78.6979197  28.7862532  20.5332781
  86.6326517  36.4816575  22.4835465  86.1890371  35.6952954  22.1656370
  87.2943730  36.6695726  21.8179356  81.3913638  38.0112377  17.0096144
  81.9421063  37.8829440  16.2373138  80.5525114  38.3107266  16.6591037
  88.7307755  36.7619375  20.5116867  88.7126230  37.5828256  20.0197136
  89.6527675  36.6373450  20.7367008  85.1880809  34.2763504  21.3540375
  85.7209146  33.5151793  21.1239683  84.6594890  33.9837156  22.0964529
  88.3550504  19.3823570  16.8834017  88.0114773  20.2725212  16.8073127
  88.7229467  19.1925228  16.0203602  76.4236355  31.7057101   9.7022619
  77.2611577  32.1154109   9.4856327  76.6014622  30.7656543   9.6722813
  87.4347044  21.7528226  14.8483250  86.9311840  21.7158361  14.0351055
  87.7277651  22.6620968  14.9079907  83.6789930  21.8366955  13.8549432
  84.5442927  21.6409764  13.4955321  83.7467439  21.6077307  14.7818788
  86.5533522  33.4049497   8.8659187  86.0254883  32.6702257   8.5532424
  86.0521024  34.1824173   8.6199155  91.5326368  31.5998517  13.9826233
  90.8750042  32.2897779  14.0706362  92.3366767  31.9894949  14.3260220
  81.2852249  24.0669163  11.2265798  81.8596001  23.8444345  10.4938991
  81.8723232  24.1357858  11.9794400  90.3431827  29.9542890  12.0330175
  90.8563708  30.5872882  12.5351885  90.9933050  29.3544086  11.6673535
  87.6054201  39.9327214   4.7890846  86.9315900  40.2358911   5.3975804
  87.9920023  40.7356295   4.4396303  86.8212657  27.4292346  14.2788515
  85.9035219  27.6507293  14.1210204  87.2372801  27.5038656  13.4200223
  91.1093623  34.9348892  10.1609318  90.6555950  34.0939801  10.2174508
  90.4787590  35.5710290  10.4984098  89.5526562  36.7725388  11.0959136
  89.8449536  37.3330445  10.3771501  90.0625183  37.0653949  11.8512295
  76.4462526  29.0447816  10.3733352  76.2486926  28.4517177   9.6484419
  75.8909190  28.7400026  11.0909291  84.4259249  28.9370923  12.4927945
  84.4807859  27.9844759  12.4170422  83.6150451  29.0930362  12.9769244
  82.3651609  27.5547982  10.2518324  81.5519475  27.8542153  10.6583516
  82.8610604  27.1603671  10.9692807  84.5160187  37.5505739  12.1852589
  84.4736366  37.7766586  11.2561121  85.4322886  37.3169114  12.3338390
  87.9625821  28.0189807  19.0833218  88.3175209  28.2461280  19.9427684
  88.6097952  28.3508184  18.4610473  81.8565684  25.1266338  15.8679559
  82.4965063  24.9855097  15.1702523  81.0243215  24.8400851  15.4918161
  93.7192938  33.2084770  14.7993819  94.1529444  33.1160059  15.6476873
  94.4324518  33.1842270  14.1613835  82.6325988  34.4268768  11.9814552
  83.4266586  33.9319089  11.7797127  81.9217680  33.8986632  11.6182257
  87.4520832  36.8086864  16.3326919  87.5057855  37.3777800  17.1004635
  86.5835614  36.9788749  15.9680956  78.9408751  28.5711850   8.0574304
  78.0106340  28.5096306   8.2744266  79.0366223  28.0487803   7.2610946
  78.8594301  25.0966663  10.6452546  79.1201118  26.0111996  10.5361706
  79.6811473  24.6291106  10.7949159  80.3319226  26.5104420  17.8151371
  81.0042279  26.3021782  17.1664019  79.5049012  26.3126506  17.3756603
  94.5808487  33.2508470  17.3326704  94.7744377  34.1554281  17.5785979
  94.4809105  32.7915890  18.1665289  86.2344798  23.1366361  19.8317031
  85.5872713  23.8356311  19.7381508  87.0045813  23.5702505  20.1993280
  89.6423596  33.4015213  22.9067585  89.4909102  33.1725765  21.9897668
  89.6328275  34.3585815  22.9198930  86.4108932  30.9747126  17.8913851
  87.3400992  31.1258286  17.7182818  85.9899962  31.0631147  17.0362498
  85.2097264  34.9997790  15.6612389  85.0708350  34.6316575  16.5338327
  84.4211860  35.5145430  15.4896347  85.8045416  40.1006887   7.0037925
  85.9797172  39.6294930   7.8183548  85.1178204  40.7272653   7.2319186
  86.7602479  34.3779393  13.0501227  86.4252312  34.3380163  13.9458876
  86.2606425  33.7124109  12.5771637  80.7346723  29.7847023  18.5753808
  80.5966521  29.0527262  19.1765347  81.6451647  29.6955923  18.2937995
  83.3629024  29.4966982  18.0637487  84.0728642  28.8560175  18.0224106
  83.3198332  29.7479877  18.9863668  91.3515802  36.4334336  20.9844067
  91.2928349  35.7493556  20.3174650  91.7535321  37.1753326  20.5324693
  82.0757958  26.4832200  19.8833127  81.5395315  26.0322939  20.5354723
  81.4874666  26.6178109  19.1403591  80.3706501  43.2496250  13.7777785
  80.6103099  43.8814774  14.4556804  79.5275698  42.8984290  14.0643145
  91.3533210  34.3973920  19.2158046  90.4659988  34.0599841  19.3384445
  91.9231761  33.6656951  19.4526812  73.0062357  30.7298011  12.5401098
  73.6933397  30.4159741  11.9522113  72.8510486  31.6339376  12.2668349
  77.8097079  25.6188208  16.9686121  77.7255268  25.0113878  16.2336531
  76.9879785  26.1097226  16.9695618  84.8834363  39.0575372  16.1819289
  84.8104535  39.8630344  16.6938594  84.4411756  39.2567338  15.3567311
  84.6724143  38.2947142   9.6922111  83.8891665  38.8368822   9.7860335
  85.3716888  38.8121122  10.0916352  87.3433047  38.9562206  18.3377448
  88.0561019  39.5909671  18.2653350  86.8523075  39.0526072  17.5217450
  89.0650574  32.8613459   9.9094740  88.1306852  32.9814921   9.7399444
  89.2427242  31.9585926   9.6454750  84.5655762  26.2459155  12.0628001
  84.1953549  25.6930195  12.7508907  85.0614854  25.6417288  11.5103001
  82.3944960  36.7056650  19.1583019  83.0954420  37.3393133  19.3112413
  81.9240075  37.0471381  18.3978658  90.1946246  29.2601257  16.9835569
  89.5417696  29.5077164  16.3288022  90.5726626  28.4465395  16.6498047
  87.1553420  39.2960950  11.0863740  87.3375815  38.4782606  11.5491492
  87.9786406  39.5128642  10.6488630  87.4895586  38.2229135   8.3478788
  88.0183352  37.7121590   7.7348950  87.7523805  37.9071666   9.2124321
  86.2433819  30.0021068  23.4701606  85.5674456  29.9015197  24.1403982
  87.0661453  29.8460282  23.9337604  77.9912678  36.2393005  16.0914122
  78.5766115  35.4936693  16.2242026  77.7937517  36.5496961  16.9750786
  80.8451333  39.2744252  11.1076564  80.1761709  39.7590380  10.6240604
  80.7064203  39.5213472  12.0219943  72.5830333  28.8098605  14.8118565
  72.6214432  28.2762195  15.6055683  72.0770626  28.2833810  14.1929542
  84.9856602  41.3087996  17.7059222  85.5374910  41.4719617  18.4708308
  85.3262795  41.8992433  17.0339247  79.9621095  23.6563145  18.3081107
  80.0262422  24.5177976  17.8958505  79.8988216  23.0437147  17.5753466
  79.4373368  25.7286278  21.9554141  80.0645407  25.3463355  22.5691666
  78.5801287  25.5100480  22.3209834  89.8367476  36.1349253  23.5607877
  90.3807380  36.7479211  23.0662832  89.2554321  36.6928831  24.0774890
  76.2138911  27.5362707   7.8872496  76.5092352  26.6273385   7.8339550
  75.3126946  27.5150446   7.5653498  88.1224989  39.2569971  14.6922905
  87.9976129  38.4559711  14.1833850  88.7804080  39.7516164  14.2036874
  79.7433158  25.6118704  13.8700045  79.0219743  26.2254671  13.7307518
  80.5326413  26.1476468  13.7916691  90.1859898  37.0578991  16.3202455
  89.2390233  36.9384342  16.2480781  90.5342671  36.1701489  16.4028716
  82.5459471  22.9473130  20.1440696  83.0693873  23.1935427  20.9067006
  82.3271804  23.7793165  19.7243834  77.9426752  25.2176805   8.0111821
  77.6139458  24.3374184   7.8286927  78.2966123  25.1624473   8.8988211
  87.1906331  36.8531707  12.5206807  87.0431293  35.9248415  12.7014377
  88.0159825  36.8751798  12.0363882  81.0568575  25.5049774   8.3787299
  81.3964648  26.0335696   7.6565907  81.5040696  25.8430181   9.1545866
  90.7940453  37.6760266  13.6071680  91.7187000  37.4703127  13.4696131
  90.6255756  37.4276667  14.5161021  83.7512016  23.8886825  17.8290367
  83.4108836  23.0894638  18.2311047  83.0451022  24.1888536  17.2567200
  81.9267067  27.6655258  14.0909669  81.7811647  27.9795561  14.9833950
  81.4492270  28.2840159  13.5380567  83.7863450  24.6557806  14.1390558
  83.7725018  23.7598900  13.8022856  84.5035878  24.6628470  14.7728844
  85.6389580  25.0895146  16.1843686  85.3807358  26.0112217  16.1828016
  85.1074621  24.6925581  16.8744150  90.5835769  38.1945934   8.9633771
  90.7572647  37.6292356   8.2107623  91.0764660  38.9946828   8.7813261
  76.4012729  30.2060603  17.0297330  75.8566197  30.9820411  17.1617604
  77.2792079  30.5531407  16.8716451  83.1900346  23.5372186   9.4078128
  83.3116257  22.6088833   9.6069016  82.9002388  23.5510872   8.4956444
  77.1878751  29.3330499  19.9227487  76.4460487  29.4813134  20.5092117
  76.8671495  29.5938764  19.0594236  85.1322413  38.8746477  19.7207877
  85.4409540  38.6295624  20.5930576  85.9297895  39.0793116  19.2326747
  85.1543025  41.0284387  11.9513253  84.7148016  40.5360765  12.6446110
  85.9051142  40.4857354  11.7105329  77.6335364  37.2195928  11.9537881
  78.4593384  36.9199699  11.5736525  77.2829416  36.4503550  12.4027670
  82.6016898  36.5722396  14.0235555  81.9796907  35.9093101  13.7237783
  83.2721764  36.5983528  13.3409203  75.8343969  35.1382254  12.9126815
  74.9975878  34.7104428  12.7310816  75.8067615  35.3314697  13.8497606
  82.6741425  25.0504184  23.6168061  82.7229581  25.9266307  23.2345831
  83.2163939  24.5081577  23.0439704  93.1596271  35.5945307  22.8969198
  92.3691814  35.5769446  22.3573697  92.9229625  36.1333601  23.6518235
  93.2794146  32.4437773  20.2101927  93.3292151  32.2787781  21.1517449
  93.1708069  31.5765032  19.8199807  82.1630404  35.1226319   7.4994015
  82.3118525  35.8061784   6.8460688  82.9696848  35.1031409   8.0143471
  90.5697908  28.4268701  21.5261233  91.4707771  28.2875166  21.2345231
  90.6445883  28.5923156  22.4659411  84.9040713  25.8035556  20.3714420
  84.0344023  26.0969122  20.0997008  85.1400194  26.3876001  21.0921683
  94.7812343  34.8634715  20.4543948  94.4897151  35.2264696  21.2907409
  94.1684474  34.1501723  20.2757280  93.0299531  29.9867330  18.9224006
  93.5053652  30.1794976  18.1142857  92.1065096  30.0426515  18.6767390
  79.9183037  31.1491497   8.5055084  79.6729079  30.2453827   8.7035295
  80.0878952  31.1508647   7.5634562  87.6079747  22.0215173  17.8879840
  88.1261691  22.7576200  17.5626329  87.2534880  22.3279166  18.7226599
  79.1878685  26.8819854   6.0041246  78.4947930  26.9564209   5.3481282
  78.9430437  26.1180198   6.5262763  85.6625810  37.6174450   4.9705763
  85.0899777  38.2364637   4.5176235  86.2358604  38.1673811   5.5045685
  91.7301200  26.8633090  17.1552312  92.6818623  26.9631187  17.1764536
  91.5604650  26.0711358  17.6650396  89.7515579  23.9488673  17.3411713
  89.1565511  24.2293686  16.6458201  89.4665276  24.4382574  18.1128454
  88.8823070  37.9011600   6.1014345  89.8153743  37.8357161   6.3047221
  88.7946283  38.7367867   5.6428878  94.2089278  30.0839209  16.2694611
  94.1765598  29.1455210  16.4554295  94.8189901  30.1623246  15.5360436
  85.9311301  33.0053008  23.7722472  86.8514310  33.1831607  23.9662519
  85.8960884  32.0609054  23.6202172  75.1493466  28.1991602  12.6975747
  74.8296250  27.3456910  12.4050121  74.6026894  28.4140180  13.4533714
  78.9273374  30.9154043  16.4145254  79.1459383  31.8471151  16.4333287
  79.3399147  30.5562018  17.2000057  83.8001239  26.4887249  25.8048002
  83.6997966  27.4381606  25.7360094  83.5822781  26.1605488  24.9324073
  75.0181726  31.8194514  14.6668869  74.3245197  31.4048466  14.1538823
  75.7654717  31.8615050  14.0702288  83.6632509  29.9184388  24.6213064
  83.1799591  30.7184748  24.8276953  83.7493448  29.9292333  23.6680508
  76.9318469  31.7512767  12.5434883  76.9089157  31.8500455  11.5916767
  77.2419105  32.5977918  12.8652050  79.5905846  33.8088922  16.6581498
  80.5449100  33.7772865  16.5911429  79.3918370  33.3479546  17.4731724
  80.1805229  32.3790038  19.2252296  80.9998118  32.8734117  19.2487133
  80.4542036  31.4622007  19.1969863  77.9456075  39.3508542  13.6751696
  77.8110543  38.5908943  13.1089694  77.5288137  40.0749442  13.2080485
  81.1025201  40.2477859  13.8870138  80.9857585  41.1923291  13.7848829
  80.2817647  39.9451421  14.2755938  75.4340143  26.7128172  19.9244493
  76.0799006  26.2027126  20.4131718  75.2257294  27.4496854  20.4987918
  87.9593535  33.7809020  25.4236633  88.8284695  33.9549672  25.0623268
  87.4800286  34.6003437  25.3012363  82.1279715  40.9006121  17.1026067
  83.0306962  40.9329731  17.4192562  81.9017085  39.9706572  17.1172403
  83.8833317  39.6537107  13.7636145  82.9328948  39.6538969  13.6500518
  84.1865803  38.9069842  13.2472180  79.7737634  23.8595789  24.0219507
  80.6369095  23.5032594  24.2322831  79.2003044  23.5209684  24.7094911
  99.6186011  45.4897646  14.8281908 100.2564421  45.3704393  14.1245248
  99.5006854  46.4378490  14.8869860  96.4275717  45.4425074  14.7643433
  96.0894229  45.3266139  13.8763967  97.2965485  45.0416239  14.7444439
  92.2862533  47.2960550  10.7540324  91.7227398  47.2050487   9.9856611
  92.1714928  46.4760455  11.2342816  96.9095500  46.5959926  20.7229638
  96.8984141  46.2012724  19.8510142  97.0716139  45.8625998  21.3163410
  89.8326965  48.7911742  13.5924544  90.6248257  48.4502567  13.1770843
  90.0723615  48.9006717  14.5126697  97.8662091  50.9631518   6.0654788
  97.2150071  51.5485598   5.6788802  98.6606454  51.4937713   6.1249826
  91.7917719  48.0520655   6.4641923  92.5648595  47.5049642   6.3254799
  92.1443117  48.9164904   6.6756384  93.6302761  49.3797037  19.6708822
  93.3392627  50.2842668  19.5555488  94.2659745  49.4213565  20.3852892
  94.5558968  46.7573886  16.2610182  95.1522540  46.5329908  15.5467145
  94.6133940  46.0158631  16.8635630  99.1727279  43.2149100  11.9035116
  99.9590368  42.7968523  11.5525533  99.4365984  44.1195192  12.0716764
  93.8480285  46.1141427   6.2984748  93.7316543  45.4386331   6.9665832
  93.9582545  45.6273801   5.4816901  96.1911826  45.5751574  10.0031437
  95.8270033  45.0482195  10.7144358  97.0478942  45.1850043   9.8297922
 102.0961127  36.8645907  17.2662703 101.7644451  37.7341318  17.0423918
 101.5006740  36.5482191  17.9456733  98.5892646  49.0658453  16.6658616
  98.2893369  49.9683492  16.5574423  98.2443706  48.7990636  17.5179769
  92.0405128  45.5172250  12.6995320  91.1155624  45.3848464  12.9073012
  92.2889541  46.2966469  13.1965263 101.9889790  41.5840993  14.3456053
 101.0806667  41.5156402  14.0514814 101.9377386  42.0612938  15.1737879
  89.4013939  45.1605523  13.5339109  89.5306320  45.4140002  14.4478521
  88.7211390  45.7533231  13.2143764  93.5713426  55.8302773   9.6329583
  93.4937456  56.7810598   9.7118064  92.9675070  55.4848646  10.2904510
  96.0630656  43.0030639  22.2890950  95.2863990  43.5624559  22.2793815
  96.7021219  43.4887422  22.8105820 103.8551436  39.7857432  16.1233927
 103.2125817  40.0789965  15.4773722 103.3506365  39.6710352  16.9287124
  94.3177028  45.8116092  21.8508917  95.0591712  46.3501136  21.5743741
  93.6114014  46.4382381  22.0080469  99.7932368  47.9545233  20.4481079
 100.2015724  47.5127643  19.7035711  99.0709629  47.3797860  20.7015272
  96.1463438  42.8917839  17.8214636  96.9924633  43.3157253  17.9649285
  96.0862075  42.2351464  18.5153199 100.1161182  48.5146423  14.2033368
  99.4870045  48.6792137  13.5009436  99.7286844  48.9288033  14.9744332
 103.9950414  49.4500861  11.5577731 103.3101452  49.8299762  11.0074765
 104.0794264  50.0596188  12.2909679  99.2962883  40.5522208  19.4795809
  99.0523815  41.3064268  18.9430085  99.5722814  40.9307555  20.3143056
 101.2501346  47.0960820  18.1573075 101.4618241  47.7392580  17.4807456
 101.2031094  46.2623137  17.6895005  98.8527575  39.7078641  15.0609647
  97.9912054  40.0059894  15.3526385  98.8790010  39.9249040  14.1290680
  95.6689144  48.2520831  11.4683453  96.1327490  48.5308534  10.6788075
  95.4045942  47.3504276  11.2856543  92.5613225  47.7992313  14.4063216
  93.1314582  48.2279581  13.7680701  93.1521337  47.5174897  15.1047402
  94.6058030  44.3743984   8.2773018  95.3082074  44.8265027   8.7446944
  94.2738659  43.7327802   8.9052911  93.0538392  42.9655740  22.6524227
  92.4237052  43.6472021  22.8859624  92.9474480  42.8538822  21.7077366
  88.3483364  42.6327536  13.5790152  87.5582418  42.8885065  13.1030262
  88.8394612  43.4475874  13.6842192 102.3647174  49.9732775  16.3295432
 103.1864618  49.5712963  16.0478114 102.3609577  49.8701010  17.2811548
  90.2998110  42.9972116  10.5373628  89.5029273  43.1090810  11.0557124
  90.0723702  43.3358768   9.6714519  96.1303777  49.5216819  18.4856143
  96.1948210  49.9837226  19.3214315  95.4214701  48.8914184  18.6138453
  86.6321067  42.8858027  16.0105142  86.8829106  43.7705037  16.2762718
  87.1680616  42.7062628  15.2380234  95.8451795  51.1884926   8.3535123
  95.7097470  52.0336462   8.7819971  96.3861607  51.3904204   7.5901057
  92.3319135  37.2676506  25.0149478  91.9386080  36.7142705  25.6897123
  93.1485275  37.5787085  25.4055996  89.2981192  48.7060364   8.9263048
  89.8105713  49.5003615   9.0768613  89.9503905  48.0086655   8.8596650
  91.1076077  51.8226121  11.0085801  91.2842705  52.7444085  10.8206785
  91.9032911  51.5084540  11.4380181  95.2487096  38.6834385  22.6069735
  95.9896809  39.2841538  22.5274197  95.4805018  37.9412023  22.0487778
  90.3928434  43.8690752  20.8847965  90.2781949  42.9676010  21.1855064
  89.5372951  44.1154449  20.5332781  97.4720271  51.8108493  22.4835465
  97.0284126  51.0244871  22.1656370  98.1337485  51.9987643  21.8179356
  92.2307392  53.3404294  17.0096144  92.7814818  53.2121358  16.2373138
  91.3918868  53.6399183  16.6591037  99.5701509  52.0911293  20.5116867
  99.5519985  52.9120174  20.0197136 100.4921429  51.9665368  20.7367008
  96.0274564  49.6055422  21.3540375  96.5602900  48.8443710  21.1239683
  95.4988645  49.3129074  22.0964529  99.1944259  34.7115488  16.8834017
  98.8508528  35.6017130  16.8073127  99.5623221  34.5217146  16.0203602
  87.2630109  47.0349019   9.7022619  88.1005331  47.4446027   9.4856327
  87.4408377  46.0948461   9.6722813  98.2740799  37.0820143  14.8483250
  97.7705594  37.0450278  14.0351055  98.5671406  37.9912886  14.9079907
  94.5183685  37.1658873  13.8549432  95.3836682  36.9701682  13.4955321
  94.5861194  36.9369225  14.7818788  97.3927276  48.7341415   8.8659187
  96.8648638  47.9994174   8.5532424  96.8914779  49.5116091   8.6199155
 102.3720122  46.9290435  13.9826233 101.7143797  47.6189697  14.0706362
 103.1760521  47.3186867  14.3260220  92.1246004  39.3961081  11.2265798
  92.6989756  39.1736262  10.4938991  92.7116986  39.4649775  11.9794400
 101.1825581  45.2834808  12.0330175 101.6957463  45.9164800  12.5351885
 101.8326805  44.6836003  11.6673535  97.6606412  42.7584263  14.2788515
  96.7428973  42.9799210  14.1210204  98.0766556  42.8330574  13.4200223
 101.9487377  50.2640809  10.1609318 101.4949704  49.4231719  10.2174508
 101.3181344  50.9002208  10.4984098 100.3920317  52.1017306  11.0959136
 100.6843291  52.6622363  10.3771501 100.9018937  52.3945867  11.8512295
  87.2856280  44.3739734  10.3733352  87.0880680  43.7809095   9.6484419
  86.7302944  44.0691944  11.0909291  95.2653004  44.2662840  12.4927945
  95.3201614  43.3136677  12.4170422  94.4544206  44.4222279  12.9769244
  93.2045364  42.8839900  10.2518324  92.3913229  43.1834071  10.6583516
  93.7004358  42.4895589  10.9692807  95.3553942  52.8797657  12.1852589
  95.3130121  53.1058503  11.2561121  96.2716641  52.6461032  12.3338390
  98.8019576  43.3481725  19.0833218  99.1568963  43.5753198  19.9427684
  99.4491707  43.6800101  18.4610473  92.6959439  40.4558256  15.8679559
  93.3358818  40.3147015  15.1702523  91.8636969  40.1692769  15.4918161
 104.5586692  48.5376687  14.7993819 104.9923199  48.4451977  15.6476873
 105.2718273  48.5134188  14.1613835  93.4719742  49.7560686  11.9814552
  94.2660341  49.2611006  11.7797127  92.7611435  49.2278549  11.6182257
  98.2914587  52.1378782  16.3326919  98.3451609  52.7069718  17.1004635
  97.4229368  52.3080667  15.9680956  89.7802506  43.9003768   8.0574304
  88.8500094  43.8388223   8.2744266  89.8759978  43.3779721   7.2610946
  89.6988055  40.4258581  10.6452546  89.9594872  41.3403914  10.5361706
  90.5205227  39.9583023  10.7949159  91.1712980  41.8396338  17.8151371
  91.8436034  41.6313700  17.1664019  90.3442767  41.6418424  17.3756603
 105.4202242  48.5800388  17.3326704 105.6138132  49.4846199  17.5785979
 105.3202860  48.1207807  18.1665289  97.0738552  38.4658279  19.8317031
  96.4266467  39.1648228  19.7381508  97.8439568  38.8994423  20.1993280
 100.4817350  48.7307131  22.9067585 100.3302857  48.5017683  21.9897668
 100.4722030  49.6877732  22.9198930  97.2502687  46.3039044  17.8913851
  98.1794747  46.4550203  17.7182818  96.8293717  46.3923064  17.0362498
  96.0491018  50.3289708  15.6612389  95.9102104  49.9608492  16.5338327
  95.2605615  50.8437347  15.4896347  97.5996234  49.7071311  13.0501227
  97.2646066  49.6672081  13.9458876  97.1000179  49.0416027  12.5771637
  91.5740478  45.1138941  18.5753808  91.4360276  44.3819180  19.1765347
  92.4845401  45.0247841  18.2937995  94.2022778  44.8258900  18.0637487
  94.9122397  44.1852092  18.0224106  94.1592086  45.0771795  18.9863668
 102.1909557  51.7626253  20.9844067 102.1322103  51.0785474  20.3174650
 102.5929075  52.5045243  20.5324693  92.9151712  41.8124118  19.8833127
  92.3789069  41.3614856  20.5354723  92.3268421  41.9470027  19.1403591
  91.2100256  58.5788167  13.7777785  91.4496854  59.2106691  14.4556804
  90.3669452  58.2276207  14.0643145 102.1926964  49.7265837  19.2158046
 101.3053743  49.3891759  19.3384445 102.7625515  48.9948869  19.4526812
  83.8456111  46.0589929  12.5401098  84.5327151  45.7451659  11.9522113
  83.6904240  46.9631294  12.2668349  88.6490833  40.9480126  16.9686121
  88.5649022  40.3405795  16.2336531  87.8273540  41.4389144  16.9695618
  95.7228118  54.3867290  16.1819289  95.6498289  55.1922261  16.6938594
  95.2805511  54.5859256  15.3567311  95.5117897  53.6239060   9.6922111
  94.7285419  54.1660740   9.7860335  96.2110642  54.1413039  10.0916352
  98.1826801  54.2854124  18.3377448  98.8954773  54.9201589  18.2653350
  97.6916830  54.3817990  17.5217450  99.9044328  48.1905376   9.9094740
  98.9700607  48.3106839   9.7399444 100.0820996  47.2877843   9.6454750
  95.4049516  41.5751072  12.0628001  95.0347304  41.0222113  12.7508907
  95.9008609  40.9709206  11.5103001  93.2338715  52.0348567  19.1583019
  93.9348174  52.6685050  19.3112413  92.7633830  52.3763299  18.3978658
 101.0340001  44.5893175  16.9835569 100.3811451  44.8369082  16.3288022
 101.4120381  43.7757313  16.6498047  97.9947175  54.6252868  11.0863740
  98.1769569  53.8074524  11.5491492  98.8180161  54.8420560  10.6488630
  98.3289340  53.5521053   8.3478788  98.8577106  53.0413508   7.7348950
  98.5917560  53.2363583   9.2124321  97.0827574  45.3312986  23.4701606
  96.4068211  45.2307115  24.1403982  97.9055208  45.1752199  23.9337604
  88.8306433  51.5684922  16.0914122  89.4159870  50.8228610  16.2242026
  88.6331271  51.8788879  16.9750786  91.6845088  54.6036170  11.1076564
  91.0155463  55.0882297  10.6240604  91.5457958  54.8505390  12.0219943
  83.4224087  44.1390522  14.8118565  83.4608187  43.6054113  15.6055683
  82.9164380  43.6125728  14.1929542  95.8250357  56.6379913  17.7059222
  96.3768665  56.8011535  18.4708308  96.1656550  57.2284351  17.0339247
  90.8014850  38.9855063  18.3081107  90.8656176  39.8469894  17.8958505
  90.7381970  38.3729065  17.5753466  90.2767122  41.0578196  21.9554141
  90.9039161  40.6755273  22.5691666  89.4195041  40.8392397  22.3209834
 100.6761231  51.4641171  23.5607877 101.2201135  52.0771129  23.0662832
 100.0948076  52.0220749  24.0774890  87.0532665  42.8654625   7.8872496
  87.3486106  41.9565303   7.8339550  86.1520701  42.8442364   7.5653498
  98.9618744  54.5861889  14.6922905  98.8369883  53.7851629  14.1833850
  99.6197835  55.0808082  14.2036874  90.5826912  40.9410621  13.8700045
  89.8613498  41.5546589  13.7307518  91.3720168  41.4768386  13.7916691
 101.0253652  52.3870909  16.3202455 100.0783988  52.2676260  16.2480781
 101.3736425  51.4993407  16.4028716  93.3853226  38.2765048  20.1440696
  93.9087627  38.5227344  20.9067006  93.1665559  39.1085083  19.7243834
  88.7820507  40.5468722   8.0111821  88.4533213  39.6666101   7.8286927
  89.1359877  40.4916391   8.8988211  98.0300085  52.1823625  12.5206807
  97.8825048  51.2540332  12.7014377  98.8553579  52.2043716  12.0363882
  91.8962330  40.8341692   8.3787299  92.2358402  41.3627613   7.6565907
  92.3434450  41.1722098   9.1545866 101.6334207  53.0052184  13.6071680
 102.5580755  52.7995045  13.4696131 101.4649511  52.7568585  14.5161021
  94.5905771  39.2178743  17.8290367  94.2502591  38.4186556  18.2311047
  93.8844777  39.5180454  17.2567200  95.2422242  36.3028055  16.2817690
  96.0648312  35.8288533  16.1596580  95.4860306  37.0818539  16.7816376
  92.7660821  42.9947176  14.0909669  92.6205402  43.3087479  14.9833950
  92.2886025  43.6132076  13.5380567  94.6257204  39.9849724  14.1390558
  94.6118773  39.0890817  13.8022856  95.3429632  39.9920388  14.7728844
  96.4783335  40.4187064  16.1843686  96.2201113  41.3404135  16.1828016
  95.9468375  40.0217499  16.8744150  87.2406483  45.5352520  17.0297330
  86.6959951  46.3112328  17.1617604  88.1185833  45.8823325  16.8716451
  94.0294100  38.8664104   9.4078128  94.1510011  37.9380750   9.6069016
  93.7396142  38.8802790   8.4956444  88.0272505  44.6622417  19.9227487
  87.2854241  44.8105052  20.5092117  87.7065249  44.9230682  19.0594236
  95.9716168  54.2038395  19.7207877  96.2803294  53.9587542  20.5930576
  96.7691650  54.4085033  19.2326747  95.9936780  56.3576304  11.9513253
  95.5541770  55.8652683  12.6446110  96.7444897  55.8149272  11.7105329
  88.4729119  52.5487845  11.9537881  89.2987139  52.2491617  11.5736525
  88.1223171  51.7795468  12.4027670  93.4410652  51.9014313  14.0235555
  92.8190661  51.2385019  13.7237783  94.1115519  51.9275445  13.3409203
  86.6737724  50.4674172  12.9126815  85.8369632  50.0396346  12.7310816
  86.6461369  50.6606615  13.8497606  93.5135180  40.3796102  23.6168061
  93.5623335  41.2558224  23.2345831  94.0557694  39.8373495  23.0439704
 103.9990025  50.9237225  22.8969198 103.2085569  50.9061364  22.3573697
 103.7623380  51.4625518  23.6518235 104.1187900  47.7729691  20.2101927
 104.1685905  47.6079699  21.1517449 104.0101824  46.9056950  19.8199807
  93.0024159  50.4518237   7.4994015  93.1512279  51.1353701   6.8460688
  93.8090602  50.4323327   8.0143471 101.4091663  43.7560619  21.5261233
 102.3101525  43.6167084  21.2345231 101.4839637  43.9215074  22.4659411
  95.7434468  41.1327474  20.3714420  94.8737777  41.4261040  20.0997008
  95.9793948  41.7167919  21.0921683 105.6206097  50.1926633  20.4543948
 105.3290905  50.5556613  21.2907409 105.0078228  49.4793641  20.2757280
 103.8693285  45.3159247  18.9224006 104.3447407  45.5086894  18.1142857
 102.9458851  45.3718433  18.6767390  90.7576792  46.4783414   8.5055084
  90.5122834  45.5745744   8.7035295  90.9272706  46.4800565   7.5634562
  98.4473502  37.3507091  17.8879840  98.9655446  38.0868118  17.5626329
  98.0928635  37.6571084  18.7226599  90.0272439  42.2111772   6.0041246
  89.3341684  42.2856127   5.3481282  89.7824191  41.4472116   6.5262763
 102.5694954  42.1925007  17.1552312 103.5212377  42.2923105  17.1764536
 102.3998405  41.4003276  17.6650396 100.5909334  39.2780591  17.3411713
  99.9959266  39.5585603  16.6458201 100.3059031  39.7674492  18.1128454
 105.0483032  45.4131127  16.2694611 105.0159352  44.4747128  16.4554295
 105.6583656  45.4915164  15.5360436  96.7705056  48.3344926  23.7722472
  97.6908065  48.5123525  23.9662519  96.7354639  47.3900972  23.6202172
  85.9887221  43.5283520  12.6975747  85.6690005  42.6748828  12.4050121
  85.4420649  43.7432098  13.4533714  89.7667128  46.2445961  16.4145254
  89.9853138  47.1763069  16.4333287  90.1792902  45.8853935  17.2000057
  94.6394993  41.8179167  25.8048002  94.5391720  42.7673524  25.7360094
  94.4216535  41.4897405  24.9324073  85.8575481  47.1486431  14.6668869
  85.1638952  46.7340384  14.1538823  86.6048472  47.1906968  14.0702288
  94.5026263  45.2476305  24.6213064  94.0193345  46.0476666  24.8276953
  94.5887202  45.2584250  23.6680508  87.7712223  47.0804685  12.5434883
  87.7482911  47.1792372  11.5916767  88.0812860  47.9269836  12.8652050
  90.4299601  49.1380840  16.6581498  91.3842854  49.1064782  16.5911429
  90.2312125  48.6771464  17.4731724  91.0198983  47.7081956  19.2252296
  91.8391872  48.2026035  19.2487133  91.2935791  46.7913924  19.1969863
  88.7849830  54.6800460  13.6751696  88.6504298  53.9200861  13.1089694
  88.3681892  55.4041359  13.2080485  91.9418956  55.5769777  13.8870138
  91.8251340  56.5215209  13.7848829  91.1211402  55.2743338  14.2755938
  86.2733897  42.0420090  19.9244493  86.9192761  41.5319044  20.4131718
  86.0651048  42.7788772  20.4987918  98.7987289  49.1100938  25.4236633
  99.6678449  49.2841590  25.0623268  98.3194041  49.9295354  25.3012363
  92.9673470  56.2298039  17.1026067  93.8700716  56.2621649  17.4192562
  92.7410840  55.2998489  17.1172403  94.7227072  54.9829025  13.7636145
  93.7722703  54.9830887  13.6500518  95.0259558  54.2361760  13.2472180
  90.6131388  39.1887707  24.0219507  91.4762850  38.8324512  24.2322831
  90.0396799  38.8501602  24.7094911 104.4696516  64.7088955  19.6708822
 104.1786382  65.6134586  19.5555488 105.1053500  64.7505483  20.3852892
 105.3952722  62.0865804  16.2610182 105.9916295  61.8621826  15.5467145
 105.4527694  61.3450549  16.8635630 100.2407693  60.4897441  13.5339109
 100.3700074  60.7431920  14.4478521  99.5605145  61.0825149  13.2143764
 105.1570783  61.1408010  21.8508917 105.8985467  61.6793054  21.5743741
 104.4507768  61.7674299  22.0080469 103.8932146  58.2947658  22.6524227
 103.2630807  58.9763939  22.8859624 103.7868234  58.1830740  21.7077366
  99.1877119  57.9619454  13.5790152  98.3976173  58.2176982  13.1030262
  99.6788366  58.7767792  13.6842192  97.4714822  58.2149944  16.0105142
  97.7222860  59.0996954  16.2762718  98.0074370  58.0354546  15.2380234
 103.1712889  52.5968424  25.0149478 102.7779835  52.0434622  25.6897123
 103.9879029  52.9079002  25.4055996 101.2322188  59.1982670  20.8847965
 101.1175703  58.2967927  21.1855064 100.3766706  59.4446367  20.5332781
 102.9639758  54.7252999  11.2265798 103.5383510  54.5028180  10.4938991
 103.5510741  54.7941693  11.9794400 103.5353193  55.7850173  15.8679559
 104.1752572  55.6438932  15.1702523 102.7030724  55.4984687  15.4918161
 100.5381809  55.7550498  10.6452546 100.7988627  56.6695832  10.5361706
 101.3598982  55.2874941  10.7949159 102.0106735  57.1688255  17.8151371
 102.6829788  56.9605618  17.1664019 101.1836521  56.9710341  17.3756603
 102.4134232  60.4430858  18.5753808 102.2754030  59.7111097  19.1765347
 103.3239156  60.3539759  18.2937995 105.0416533  60.1550818  18.0637487
 105.7516151  59.5144010  18.0224106 104.9985841  60.4063713  18.9863668
 103.7545467  57.1416036  19.8833127 103.2182824  56.6906774  20.5354723
 103.1662175  57.2761944  19.1403591  94.6849866  61.3881847  12.5401098
  95.3720906  61.0743577  11.9522113  94.5297995  62.2923211  12.2668349
  99.4884588  56.2772043  16.9686121  99.4042777  55.6697713  16.2336531
  98.6667294  56.7681062  16.9695618 104.0732469  67.3640485  19.1583019
 104.7741929  67.9976968  19.3112413 103.6027584  67.7055216  18.3978658
  99.6700187  66.8976840  16.0914122 100.2553624  66.1520528  16.2242026
  99.4725026  67.2080797  16.9750786  94.2617842  59.4682440  14.8118565
  94.3001941  58.9346031  15.6055683  93.7558135  58.9417646  14.1929542
 101.6408604  54.3146981  18.3081107 101.7049931  55.1761812  17.8958505
 101.5775724  53.7020982  17.5753466 101.1160877  56.3870113  21.9554141
 101.7432916  56.0047191  22.5691666 100.2588796  56.1684315  22.3209834
 101.4220667  56.2702539  13.8700045 100.7007252  56.8838507  13.7307518
 102.2113922  56.8060304  13.7916691 104.2246980  53.6056965  20.1440696
 104.7481382  53.8519262  20.9067006 104.0059313  54.4377000  19.7243834
 105.4299525  54.5470661  17.8290367 105.0896345  53.7478474  18.2311047
 104.7238531  54.8472371  17.2567200 103.6054576  58.3239094  14.0909669
 103.4599156  58.6379397  14.9833950 103.1279779  58.9423994  13.5380567
  98.0800238  60.8644438  17.0297330  97.5353706  61.6404246  17.1617604
  98.9579588  61.2115242  16.8716451  98.8666260  59.9914334  19.9227487
  98.1247996  60.1396970  20.5092117  98.5459004  60.2522600  19.0594236
 104.3528934  55.7088019  23.6168061 104.4017089  56.5850142  23.2345831
 104.8951448  55.1665412  23.0439704  96.8280975  58.8575438  12.6975747
  96.5083759  58.0040746  12.4050121  96.2814403  59.0724016  13.4533714
 100.6060883  61.5737879  16.4145254 100.8246892  62.5054986  16.4333287
 101.0186656  61.2145853  17.2000057 105.4788748  57.1471084  25.8048002
 105.3785475  58.0965441  25.7360094 105.2610290  56.8189323  24.9324073
  96.6969235  62.4778349  14.6668869  96.0032706  62.0632302  14.1538823
  97.4442226  62.5198886  14.0702288 105.3420018  60.5768223  24.6213064
 104.8587100  61.3768583  24.8276953 105.4280957  60.5876168  23.6680508
 101.2693355  64.4672758  16.6581498 102.2236609  64.4356700  16.5911429
 101.0705879  64.0063382  17.4731724 101.8592738  63.0373874  19.2252296
 102.6785627  63.5317953  19.2487133 102.1329545  62.1205842  19.1969863
  97.1127652  57.3712008  19.9244493  97.7586515  56.8610962  20.4131718
  96.9044803  58.1080689  20.4987918 101.4525143  54.5179625  24.0219507
 102.3156604  54.1616430  24.2322831 100.8790553  54.1793520  24.7094911
   2.0615616  53.9817487  79.0553868   1.3079324  53.4124885  78.8997872
   2.1963157  53.9480152  80.0024502   2.4722031  54.1393097  81.7874112
   3.2025419  53.8778385  82.3481815   1.8628976  53.4021819  81.8276180
   2.0642214  68.4835527  81.2055372   2.7020624  68.3642274  80.5018712
   1.9463057  69.4316371  81.2643324   1.6183483  66.2086981  78.2808580
   2.4046572  65.7906404  77.9298997   1.8822187  67.1133073  78.4490228
   1.7893560  71.6459831  72.9797236   1.1539393  71.7194457  73.6918141
   1.4590966  72.2353430  72.3016316   7.0191910  66.1462214  79.1841558
   7.7517082  65.5761431  79.4179388   6.2631265  65.7583814  79.6248064
   4.5417330  59.8583788  83.6436167   4.2100655  60.7279199  83.4197382
   3.9462943  59.5420072  84.3230197   1.0348850  72.0596334  83.0432079
   0.7349573  72.9621373  82.9347887   0.6899909  71.7928517  83.8953232
   4.4345993  64.5778874  80.7229517   3.5262871  64.5094283  80.4288278
   4.3833589  65.0550819  81.5511342   6.3007640  62.7795312  82.5007391
   5.6582020  63.0727846  81.8547185   5.7962568  62.6648233  83.3060587
   3.9547803  66.5258486  73.1893250   4.8665659  66.7585872  73.0140948
   3.4457450  67.1095530  72.6268329   2.2388571  70.9483114  86.8254543
   2.6471927  70.5065524  86.0809175   1.5165833  70.3735741  87.0788735
   2.5617386  71.5084304  80.5806831   1.9326248  71.6730018  79.8782899
   2.1743048  71.9225914  81.3517795   6.4406618  72.4438742  77.9351195
   5.7557656  72.8237643  77.3848229   6.5250467  73.0534069  78.6683143
   1.7419086  63.5460089  85.8569273   1.4980018  64.3002149  85.3203549
   2.0179017  63.9245436  86.6916520   3.6957549  70.0898701  84.5346539
   3.9074444  70.7330461  83.8580920   3.6487297  69.2561018  84.0668469
   4.8103377  72.9670656  82.7068896   5.6320821  72.5650844  82.4251578
   4.8065780  72.8638891  83.6585012  12.9009370  69.3109405  79.0553868
  12.1473079  68.7416803  78.8997872  13.0356911  69.2772069  80.0024502
   1.6400462  57.7053369  83.2607480   1.2964731  58.5955011  83.1846591
   2.0079424  57.5155027  82.3977065   1.6050745  67.6961980  71.7679915
   1.0897368  68.4666585  72.0068303   1.3328053  67.0227116  72.3912977
   6.5785019  70.4494335  73.7033089   5.8014461  70.1105494  73.2588251
   7.2576500  70.4546958  73.0288054   1.3937048  65.5689072  73.5939697
   1.0887183  65.8835221  74.4449840   2.3467490  65.6470492  73.6367030
   4.8176326  69.9228316  80.3599697   4.1600000  70.6127577  80.4479826
   5.6216725  70.3124748  80.7033683   3.6281784  68.2772689  78.4103639
   4.1413666  68.9102681  78.9125348   4.2783008  67.6773884  78.0446999
   0.8897663  67.1513560  75.7864659   1.6369482  67.6634957  75.4771782
   1.1589253  66.8297613  76.6469053   4.3943581  73.2578690  76.5382781
   3.9405908  72.4169600  76.5947972   3.7637547  73.8940089  76.8757561
   3.3376500  64.1870676  77.7683449   2.5999257  63.6748062  78.0993691
   3.5903274  63.7471058  76.9566726   2.8376520  75.0955187  77.4732599
   3.1299494  75.6560244  76.7544965   3.3475140  75.3883748  78.2285759
   3.4388127  56.9646928  78.3625218   3.7447004  56.1044292  78.0751133
   4.1640732  57.5564548  78.1624212   1.2475779  66.3419606  85.4606682
   1.6025167  66.5691079  86.3201148   1.8947910  66.6737982  84.8383937
   6.9773516  69.4638041  76.1656011   6.8391414  69.6539637  75.2377200
   6.6209735  70.2257424  76.6224062   7.0042895  71.5314568  81.1767282
   7.4379402  71.4389858  82.0250336   7.7174476  71.5072069  80.5387298
   7.8658445  71.5738269  83.7100168   8.0594335  72.4784080  83.9559443
   7.7659063  71.1145688  84.5438753   2.9811629  70.0465226  69.7011750
   2.3640799  69.3212054  69.6044803   2.5128117  70.8074586  69.3578824
   4.6365760  74.7564134  87.3617530   4.5778306  74.0723355  86.6948113
   5.0385279  75.4983124  86.9098156   4.6383168  72.7203718  85.5931510
   3.7509946  72.3829640  85.7157909   5.2081719  71.9886750  85.8300275
   1.2670751  62.4271570  78.7129780   1.7639450  61.6741533  78.3930850
   0.4957732  62.4635887  78.1472989   9.1200508  68.1311936  80.3548072
   9.1090384  69.0136651  79.9842005   8.2517887  67.7783487  80.1602609
   2.3500531  71.1843257  76.2868203   1.4156810  71.3044720  76.1172908
   2.5277200  70.2815724  76.0228213   5.7373083  67.0260577  76.8218238
   6.2033535  67.8588568  76.7478540   6.1880583  66.5605558  77.5263496
   3.8049314  73.3704398  73.8204390   4.0809158  73.2560993  74.7298264
   2.9353813  72.9721883  73.7816563   3.7089745  59.3941164  80.8609139
   2.7952825  59.6245391  81.0291346   4.1382847  59.4779608  81.7123171
   3.4796204  67.5831056  83.3609033   2.8267654  67.8306963  82.7061486
   3.8576584  66.7695194  83.0271510   0.7745543  76.5458934  74.7252252
   1.3033310  76.0351389  74.1122414   1.0373763  76.2301464  75.5897785
   1.4074947  77.5799770  81.0696368   1.2826087  76.7789510  80.5607314
   2.0654038  78.0745963  80.5810338   3.4709855  75.3808790  82.6975918
   2.5240191  75.2614141  82.6254245   3.8192629  74.4931288  82.7802180
   4.0790411  75.9990065  79.9845143   5.0036958  75.7932926  79.8469594
   3.9105714  75.7506466  80.8934485   3.8685727  76.5175732  75.3407235
   4.0422604  75.9522155  74.5881087   4.3614618  77.3176627  75.1586725
   9.7225118  69.2812155  76.9597534  10.1656264  68.5319480  76.5616658
   8.8451628  69.2722291  76.5771266   4.8560899  75.8342497  72.4404133
   5.5511804  76.4549189  72.6591448   5.1984049  74.9837848  72.7156511
   6.7552322  73.2842202  73.9691464   7.2803647  73.6229475  73.2440784
   6.6674675  72.3489217  73.7854598   6.5644104  70.7667572  86.5875390
   6.6142108  70.6017580  87.5290913   6.4558027  69.8994831  86.1973271
   3.8547866  66.7498500  87.9034697   4.7557729  66.6104965  87.6118695
   3.9295840  66.9152955  88.8432874   8.0662300  73.1864514  86.8317412
   7.7747109  73.5494494  87.6680873   7.4534432  72.4731522  86.6530744
   9.2657983  70.7517393  79.3519982  10.1004874  71.1907197  79.5157542
   9.4017112  70.2756047  78.5328228   6.3149489  68.3097128  85.2997470
   6.7903610  68.5024775  84.4916321   5.3915054  68.3656314  85.0540853
   0.8929705  60.3444972  84.2653304   1.4111649  61.0805999  83.9399792
   0.5384838  60.6508965  85.1000063   1.1442299  56.7645254  79.7854200
   1.4244053  56.0968443  80.4114627   1.9292906  56.9574350  79.2728864
   5.0151158  65.1862888  83.5325775   5.9668581  65.2860986  83.5537999
   4.8454608  64.3941157  84.0423860   3.0365537  62.2718472  83.7185176
   2.4415469  62.5523484  83.0231665   2.7515234  62.7612372  84.4901917
   2.1673028  76.2241398  72.4787809   3.1003701  76.1586960  72.6820684
   2.0796240  77.0597665  72.0202342   4.7961044  75.5407269  69.4391756
   4.7174676  75.2067132  70.3327514   5.6170711  76.0329037  69.4383229
   7.4939235  68.4069008  82.6468075   7.4615556  67.4685009  82.8327759
   8.1039859  68.4853045  81.9133900   7.6433724  65.1980051  82.6926358
   7.1272773  64.4138508  82.5056287   8.5273672  64.8698768  82.8572878
   5.3044451  58.9421067  78.6522171   5.1069272  58.6336155  79.5365503
   5.9144156  59.6682706  78.7820101  13.3115785  69.4685015  81.7874112
  14.0419174  69.2070303  82.3481815  12.7022731  68.7313737  81.8276180
  11.3931082  67.6092877  82.3848563  10.6664246  67.4748842  81.7765055
  10.9778369  67.9169706  83.1905281   1.0618097  58.8229974  76.4018702
   1.6149136  59.2425427  77.0608725   1.2988184  57.8965722  76.4441658
   4.4396905  60.9330499  75.9097367   3.8595574  61.5915303  75.5275419
   4.1732837  60.1107844  75.4984784   2.8900471  60.3335557  78.1118687
   3.3900249  60.4452091  77.3033006   3.5336079  60.0296610  78.7519495
   3.2221783  63.0930589  74.9653715   2.3347638  63.3780240  74.7473910
   3.6375772  62.9324353  74.1180992   6.5736319  63.1177110  78.6808054
   7.3496709  63.6073563  78.9532671   5.8484453  63.5435165  79.1379924
   9.0108877  63.8304730  79.7381995   9.6053368  63.5900466  79.0275303
   9.0835461  63.1111860  80.3655531   2.3664996  72.8575264  69.0601735
   3.0700846  73.0625267  69.6759390   1.6427645  73.4252026  69.3250818
   3.1962806  68.6085125  75.1804005   3.1398008  69.0653677  74.3411637
   3.7491149  67.8475810  75.0026848   7.0067612  64.3974857  76.0054124
   6.7504546  63.9971493  76.8362332   6.3820480  65.1118651  75.8804264
  11.3179950  67.1370930  78.5125416  10.7579508  67.2064120  79.2856978
  10.7123453  66.9611915  77.7924912   4.2751693  73.2957793  71.1100195
   5.1097297  72.8638992  70.9277670   4.1136036  73.1239807  72.0377089
   3.9297586  69.7989907  72.4756534   3.8746389  69.6334178  71.5344978
   3.3043641  70.5065940  72.6318724  12.9035969  83.8127444  81.2055372
  13.5414378  83.6934192  80.5018712  12.7856811  84.7608288  81.2643324
   9.7125675  83.7654873  81.1416896   9.3744186  83.6495937  80.2537431
  10.5815443  83.3646038  81.1217902   5.5712490  85.6190349  77.1313787
   5.0077356  85.5280286  76.3630075   5.4564886  84.7990253  77.6116280
  11.1512049  89.2861317  72.4428252  10.5000029  89.8715397  72.0562266
  11.9456412  89.8167512  72.5023290   5.0767676  86.3750454  72.8415386
   5.8498552  85.8279441  72.7028262   5.4293075  87.2394703  73.0529848
   7.8408926  85.0803685  82.6383645   8.4372498  84.8559707  81.9240608
   7.8983897  84.3388430  83.2409093   7.4133954  82.5343120  70.4733836
   7.6659475  82.0124641  69.7117299   6.4758513  82.3709265  70.5760520
  12.4577237  81.5378898  78.2808580  13.2440326  81.1198321  77.9298997
  12.7215941  82.4424990  78.4490228  12.6287314  86.9751749  72.9797236
  11.9933147  87.0486375  73.6918141  12.2984721  87.5645347  72.3016316
  17.8585664  81.4754131  79.1841558  18.5910836  80.9053348  79.4179388
  17.1025020  81.0875732  79.6248064   7.1330243  84.4371226  72.6758211
   7.0166501  83.7616129  73.3439296   7.2432503  83.9503600  71.8590364
   9.4761784  83.8981373  76.3804901   9.1119991  83.3711994  77.0917822
  10.3328900  83.5079842  76.2071386  15.3811084  75.1875706  83.6436167
  15.0494409  76.0571117  83.4197382  14.7856698  74.8711990  84.3230197
   9.1167271  78.9271273  71.3766249   9.2841673  79.7951509  71.7436720
   8.9264440  79.0898554  70.4527538  11.8742604  87.3888252  83.0432079
  11.5743327  88.2913290  82.9347887  11.5293664  87.1220435  83.8953232
   5.3255085  83.8402048  79.0768784   4.4005582  83.7078263  79.2846476
   5.5739499  84.6196268  79.5738726  15.2739748  79.9070792  80.7229517
  14.3656625  79.8386200  80.4288278  15.2227344  80.3842737  81.5511342
   9.0956492  81.3828930  72.3612916   8.9756117  81.8285981  73.1998396
   8.4009080  81.7314248  71.8026454  17.1401394  78.1087230  82.5007391
  16.4975774  78.4019763  81.8547185  16.6356323  77.9940150  83.3060587
  14.7941558  81.8550403  73.1893250  15.7059414  82.0877790  73.0140948
  14.2851205  82.4387448  72.6268329  13.0782326  86.2775031  86.8254543
  13.4865682  85.8357442  86.0809175  12.3559587  85.7027659  87.0788735
   9.4313396  81.2147638  84.1988100  10.2774591  81.6387052  84.3422749
   9.3712033  80.5581262  84.8926663  13.4011140  86.8376222  80.5806831
  12.7720003  87.0021936  79.8782899  13.0136802  87.2517831  81.3517795
  17.2800372  87.7730660  77.9351195  16.5951410  88.1529561  77.3848229
  17.3644221  88.3825986  78.6683143  12.5812841  78.8752006  85.8569273
  12.3373773  79.6294067  85.3203549  12.8572771  79.2537354  86.6916520
  14.5351304  85.4190619  84.5346539  14.7468199  86.0622379  83.8580920
  14.4881052  84.5852935  84.0668469  12.1377533  78.0308439  81.4383111
  11.2762012  78.3289693  81.7299848  12.1639967  78.2478838  80.5064144
   8.9539102  86.5750630  77.8456917   9.4177448  86.8538333  77.0561539
   8.6895900  85.6734074  77.6630007   5.8463183  86.1222111  80.7836680
   6.4164540  86.5509380  80.1454164   6.4371295  85.8404696  81.4820865
   7.8907988  82.6973782  74.6546482   8.5932031  83.1494826  75.1220408
   7.5588617  82.0557601  75.2826375   1.6333322  80.9557335  79.9563615
   0.8432376  81.2114863  79.4803726   2.1244569  81.7705673  80.0615656
  15.6497132  88.2962574  82.7068896  16.4714575  87.8942761  82.4251578
  15.6459534  88.1930808  83.6585012   3.5848067  81.3201914  76.9147092
   2.7879231  81.4320608  77.4330588   3.3573660  81.6588566  76.0487982
  23.7403125  84.6401323  79.0553868  22.9866833  84.0708721  78.8997872
  23.8750666  84.6063987  80.0024502   9.1301753  89.5114725  74.7308587
   8.9947428  90.3566261  75.1593435   9.6711565  89.7134003  73.9674521
   2.5831150  87.0290163  75.3036512   3.0955671  87.8233413  75.4542077
   3.2353863  86.3316453  75.2370113   4.3926035  90.1455919  77.3859265
   4.5692663  91.0673884  77.1980249   5.1882868  89.8314338  77.8153645
   8.5337053  77.0064184  88.9843199   9.2746767  77.6071337  88.9047661
   8.7654976  76.2641822  88.4261241  12.4794216  73.0345287  83.2607480
  12.1358486  73.9246928  83.1846591  12.8473179  72.8446944  82.3977065
   0.5480067  85.3578817  76.0796083   1.3855289  85.7675826  75.8629790
   0.7258335  84.4178259  76.0496276  12.4444499  83.0253898  71.7679915
  11.9291122  83.7958503  72.0068303  12.1721807  82.3519034  72.3912977
  10.0291610  77.8703599  76.8265154   9.1733206  77.4810449  76.6470793
  10.4418562  77.9495559  75.9664939  11.5590757  75.4049942  81.2256714
  11.0555552  75.3680077  80.4124519  11.8521364  76.3142685  81.2853370
   7.8033643  75.4888672  80.2322895   8.6686639  75.2931480  79.8728785
   7.8711151  75.2599023  81.1592252  17.4178773  85.7786253  73.7033089
  16.6408216  85.4397412  73.2588251  18.0970254  85.7838876  73.0288054
  12.2330802  80.8980990  73.5939697  11.9280938  81.2127139  74.4449840
  13.1861244  80.9762410  73.6367030  10.6777234  87.0571213  75.2432651
  10.1498596  86.3223973  74.9305888  10.1764737  87.8345890  74.9972619
  15.6570080  85.2520234  80.3599697  14.9993754  85.9419495  80.4479826
  16.4610479  85.6416666  80.7033683   5.4095962  77.7190880  77.6039262
   5.9839714  77.4966061  76.8712455   5.9966944  77.7879574  78.3567863
  14.4675539  83.6064606  78.4103639  14.9807421  84.2394598  78.9125348
  15.1176763  83.0065802  78.0446999   5.7365549  79.7495341  71.6235147
   4.9002861  80.0870027  71.9444422   5.5970318  79.6144320  70.6862284
   7.7118629  74.5932128  76.3314332   7.0583042  74.2781146  75.7070946
   7.6699103  73.9707869  77.0574155   8.8229834  84.8751424  68.2467624
   7.9156896  84.6440677  68.4458773   9.3200866  84.0789043  68.4341605
  11.7297913  93.5848931  71.1664310  11.0559612  93.8880627  71.7749268
  12.1163735  94.3878011  70.8169767  10.9456370  81.0814062  80.6561979
  10.0278931  81.3029009  80.4983667  11.3616513  81.1560372  79.7973687
  11.7291417  82.4805478  75.7864659  12.4763236  82.9926875  75.4771782
  11.9983007  82.1589530  76.6469053  10.0018068  84.9764018  72.7691614
   9.0929287  84.6923051  72.8664084  10.0313151  85.3963097  71.9094921
  15.2337335  88.5870608  76.5382781  14.7799662  87.7461518  76.5947972
  14.6031302  89.2232006  76.8757561  14.1770255  79.5162594  77.7683449
  13.4393011  79.0039980  78.0993691  14.4297028  79.0762976  76.9566726
  13.6770274  90.4247105  77.4732599  13.9693249  90.9852162  76.7544965
  14.1868895  90.7175666  78.2285759  14.2781882  72.2938846  78.3625218
  14.5840759  71.4336209  78.0751133  15.0034487  72.8856466  78.1624212
   8.5502962  82.5892639  78.8701409   8.6051571  81.6366475  78.7943886
   7.7394164  82.7452078  79.3542708   9.6994155  86.5172762  70.1079692
   9.2613585  85.8008621  69.6485330  10.4404596  86.7448877  69.5464784
   6.4895322  81.2069699  76.6291788   5.6763187  81.5063869  77.0356980
   6.9854316  80.8125388  77.3466270   8.6403899  91.2027456  78.5626053
   8.5980078  91.4288302  77.6334585   9.5566598  90.9690830  78.7111854
  12.0869533  81.6711523  85.4606682  12.4418921  81.8982996  86.3201148
  12.7341665  82.0029900  84.8383937  17.8167270  84.7929959  76.1656011
  17.6785169  84.9831555  75.2377200  17.4603489  85.5549342  76.6224062
   5.9809396  78.7788054  82.2453023   6.6208776  78.6376813  81.5475986
   5.1486927  78.4922568  81.8691625  17.8436650  86.8606486  81.1767282
  18.2773157  86.7681775  82.0250336  18.5568231  86.8363987  80.5387298
   6.7569700  88.0790485  78.3588015   7.5510299  87.5840805  78.1570590
   6.0461393  87.5508348  77.9955721  11.5764545  90.4608580  82.7100383
  11.6301567  91.0299517  83.4778099  10.7079326  90.6310465  82.3454420
   3.0652464  82.2233566  74.4347768   2.1350052  82.1618022  74.6517730
   3.1609936  81.7009519  73.6384409   2.9838013  78.7488379  77.0226010
   3.2444830  79.6633713  76.9135170   3.8055185  78.2812822  77.1722623
  18.7052199  86.9030187  83.7100168  18.8988089  87.8075997  83.9559443
  18.6052818  86.4437606  84.5438753  10.3588510  76.7888077  86.2090495
   9.7116425  77.4878027  86.1154972  11.1289526  77.2224221  86.5766743
  10.5352644  84.6268842  84.2687315  11.4644704  84.7780002  84.0956282
  10.1143675  84.7152863  83.4135961   9.3340976  88.6519507  82.0385852
   9.1952062  88.2838291  82.9111791   8.5455573  89.1667146  81.8669810
  10.8846191  88.0301109  79.4274690  10.5496024  87.9901879  80.3232340
  10.3850137  87.3645825  78.9545101  13.8205383  85.3757144  69.7011750
  13.2034554  84.6503972  69.6044803  13.3521872  86.1366504  69.3578824
  15.4759515  90.0856052  87.3617530  15.4172061  89.4015272  86.6948113
  15.8779033  90.8275042  86.9098156   5.6103929  79.5942568  68.8233054
   4.7333395  79.4731369  68.4595301   6.0861682  78.8028646  68.5711943
  15.4776922  88.0495636  85.5931510  14.5903701  87.7121558  85.7157909
  16.0475473  87.3178667  85.8300275   8.7967855  91.9468858  76.0695575
   8.0135377  92.4890539  76.1633799   9.4960600  92.4642838  76.4689816
  12.1064505  77.7563488  78.7129780  12.6033205  77.0033450  78.3930850
  11.3351487  77.7927805  78.1472989  19.9594263  83.4603853  80.3548072
  19.9484139  84.3428569  79.9842005  19.0911642  83.1075404  80.1602609
  13.1894286  86.5135175  76.2868203  12.2550565  86.6336638  76.1172908
  13.3670954  85.6107642  76.0228213   8.6899474  79.8980871  78.4401465
   8.3197261  79.3451911  79.1282370   9.1858566  79.2939004  77.8876465
  16.5766837  82.3552494  76.8218238  17.0427289  83.1880486  76.7478540
  17.0274338  81.8897476  77.5263496  14.6443068  88.6996316  73.8204390
  14.9202912  88.5852910  74.7298264  13.7747567  88.3013801  73.7816563
  14.5483500  74.7233081  80.8609139  13.6346580  74.9537308  81.0291346
  14.9776601  74.8071525  81.7123171  14.3189958  82.9122973  83.3609033
  13.6661409  83.1598881  82.7061486  14.6970338  82.0987112  83.0271510
  11.2797132  92.9482666  77.4637203  11.4619527  92.1304322  77.9264956
  12.1030118  93.1650359  77.0262093  11.6139298  91.8750852  74.7252252
  12.1427064  91.3643306  74.1122414  11.8767517  91.5593382  75.5897785
   4.0864808  77.3084862  84.6854571   4.1506134  78.1699693  84.2731968
   4.0231928  76.6958863  83.9526929  12.2468702  92.9091687  81.0696368
  12.1219841  92.1081427  80.5607314  12.9047793  93.4037881  80.5810338
   3.8676870  79.2640420  80.2473508   3.1463456  79.8776388  80.1080982
   4.6570126  79.7998185  80.1690154  14.3103610  90.7100707  82.6975918
  13.3633946  90.5906059  82.6254245  14.6586383  89.8223205  82.7802180
   6.6703183  76.5994846  86.5214160   7.1937585  76.8457143  87.2840470
   6.4515517  77.4314881  86.1017298   2.0670464  78.8698521  74.3885285
   1.7383171  77.9895900  74.2060391   2.4209835  78.8146190  75.2761674
  11.3150043  90.5053424  78.8980271  11.1675006  89.5770131  79.0787841
  12.1403537  90.5273514  78.4137346   5.1812288  79.1571491  74.7560763
   5.5208360  79.6857412  74.0339371   5.6284408  79.4951897  75.5319329
  14.9184165  91.3281982  79.9845143  15.8430713  91.1224844  79.8469594
  14.7499468  91.0798384  80.8934485   7.8755728  77.5408541  84.2063831
   7.5352549  76.7416355  84.6084511   7.1694735  77.8410252  83.6340664
   8.5272200  74.6257854  82.6591154   9.3498270  74.1518332  82.5370044
   8.7710264  75.4048338  83.1589840   7.1680435  77.6546112  72.9554055
   7.8888797  78.0327365  72.4517772   6.5445739  78.3734989  73.0589033
  11.3111558  78.3591261  73.8912388  11.5275172  79.2415899  73.5901216
  10.8305625  77.9677475  73.1618030   6.0510779  81.3176975  80.4683132
   5.9055360  81.6317278  81.3607414   5.5735983  81.9361875  79.9154031
   7.9107162  78.3079523  80.5164022   7.8968731  77.4120616  80.1796320
   8.6279590  78.3150186  81.1502308   9.7633293  78.7416863  82.5617149
   9.5051070  79.6633933  82.5601480   9.2318333  78.3447297  83.2517614
  14.7079481  91.8467650  75.3407235  14.8816359  91.2814072  74.5881087
  15.2008373  92.6468545  75.1586725   7.3144058  77.1893903  75.7851592
   7.4359969  76.2610549  75.9842480   7.0246100  77.2032589  74.8729908
  10.1835248  74.8748813  78.9218312  10.2056945  74.9388146  77.9670291
  10.6003307  74.0353322  79.1158818  20.5618873  84.6104073  76.9597534
  21.0050019  83.8611398  76.5616658  19.6845383  84.6014209  76.5771266
  15.6954654  91.1634414  72.4404133  16.3905558  91.7841107  72.6591448
  16.0377804  90.3129765  72.7156511  17.5946077  88.6134120  73.9691464
  18.1197401  88.9521393  73.2440784  17.5068429  87.6781135  73.7854598
  17.4037858  86.0959490  86.5875390  17.4535863  85.9309497  87.5290913
  17.2951781  85.2286749  86.1973271   6.2874117  88.7748035  73.8767479
   6.4362237  89.4583500  73.2234152   7.0940560  88.7553126  74.3916935
  14.6941620  82.0790418  87.9034697  15.5951483  81.9396883  87.6118695
  14.7689595  82.2444873  88.8432874   9.0284426  79.4557273  86.7487883
   8.1587735  79.7490839  86.4770472   9.2643906  80.0397718  87.4695147
  18.9056055  88.5156431  86.8317412  18.6140863  88.8786412  87.6680873
  18.2928186  87.8023440  86.6530744  20.1051737  86.0809311  79.3519982
  20.9398629  86.5199115  79.5157542  20.2410866  85.6047964  78.5328228
  17.1543243  83.6389046  85.2997470  17.6297365  83.8316692  84.4916321
  16.2308809  83.6948232  85.0540853   4.0426750  84.8013213  74.8828548
   3.7972792  83.8975543  75.0808758   4.2122664  84.8030364  73.9408026
  11.7323460  75.6736889  84.2653304  12.2505403  76.4097916  83.9399792
  11.3778592  75.9800883  85.1000063   3.3122397  80.5341571  72.3814710
   2.6191642  80.6085926  71.7254746   3.0674149  79.7701914  72.9036226
  11.9836054  72.0937172  79.7854200  12.2637808  71.4260361  80.4114627
  12.7686661  72.2866268  79.2728864   9.7869522  91.2696166  71.3479227
   9.2143489  91.8886353  70.8949698  10.3602316  91.8195528  71.8819149
  15.8544912  80.5154806  83.5325775  16.8062335  80.6152904  83.5537999
  15.6848363  79.7233075  84.0423860  13.8759292  77.6010389  83.7185176
  13.2809224  77.8815402  83.0231665  13.5908988  78.0904290  84.4901917
  13.0066782  91.5533316  72.4787809  13.9397455  91.4878878  72.6820684
  12.9189995  92.3889583  72.0202342  15.6354799  90.8699186  69.4391756
  15.5568430  90.5359050  70.3327514  16.4564466  91.3620954  69.4383229
  18.3332990  83.7360926  82.6468075  18.3009310  82.7976926  82.8327759
  18.9433614  83.8144962  81.9133900  10.1716321  82.6056979  68.6895279
  11.1175425  82.4763187  68.7583697   9.7930566  81.8671641  69.1664707
  18.4827478  80.5271969  82.6926358  17.9666527  79.7430426  82.5056287
  19.3667427  80.1990686  82.8572878  16.1438205  74.2712985  78.6522171
  15.9463026  73.9628073  79.5365503  16.7537911  74.9974624  78.7820101
  24.1509540  84.7976933  81.7874112  24.8812928  84.5362221  82.3481815
  23.5416485  84.0605654  81.8276180  22.2324837  82.9384795  82.3848563
  21.5058000  82.8040760  81.7765055  21.8172124  83.2461624  83.1905281
   8.3559238  80.5306955  68.6250164   7.4490693  80.2340068  68.7012878
   8.6335219  80.2336773  67.7584451   9.9721304  75.0743845  74.7794406
   9.1622032  74.7290930  75.1549652  10.6605721  74.7651389  75.3682017
  11.9011852  74.1521892  76.4018702  12.4542891  74.5717345  77.0608725
  12.1381938  73.2257640  76.4441658   7.1258023  77.3893890  68.7662144
   7.9877187  77.7148789  69.0257961   7.3108367  76.6025386  68.2535209
  15.2790659  76.2622417  75.9097367  14.6989328  76.9207221  75.5275419
  15.0126592  75.4399761  75.4984784  13.7294225  75.6627474  78.1118687
  14.2294004  75.7744009  77.3033006  14.3729833  75.3588527  78.7519495
  14.0615537  78.4222507  74.9653715  13.1741392  78.7072158  74.7473910
  14.4769526  78.2616270  74.1180992  17.4130073  78.4469028  78.6808054
  18.1890463  78.9365481  78.9532671  16.6878207  78.8727082  79.1379924
  19.8502632  79.1596647  79.7381995  20.4447123  78.9192383  79.0275303
  19.9229216  78.4403778  80.3655531  13.2058751  88.1867182  69.0601735
  13.9094601  88.3917184  69.6759390  12.4821399  88.7543944  69.3250818
  14.0356561  83.9377043  75.1804005  13.9791762  84.3945594  74.3411637
  14.5884903  83.1767728  75.0026848  17.8461367  79.7266775  76.0054124
  17.5898301  79.3263411  76.8362332  17.2214235  80.4410569  75.8804264
  22.1573705  82.4662848  78.5125416  21.5973263  82.5356037  79.2856978
  21.5517208  82.2903833  77.7924912  15.1145448  88.6249711  71.1100195
  15.9491052  88.1930909  70.9277670  14.9529791  88.4531725  72.0377089
  14.7691340  85.1281824  72.4756534  14.7140144  84.9626096  71.5344978
  14.1437395  85.8357857  72.6318724   8.0787466  74.6289933  72.0541853
   8.0666135  75.5731773  72.2110123   8.9710887  74.4460079  71.7601314
  11.8939585  71.2232710  76.3087789  11.1271981  70.6691197  76.4544472
  12.3050290  71.2954579  77.1701941  23.2970991  96.8670816  78.2808580
  24.0834081  96.4490239  77.9298997  23.5609696  97.7716908  78.4490228
  28.6979419  96.8046049  79.1841558  29.4304591  96.2345266  79.4179388
  27.9418774  96.4167650  79.6248064  26.2204839  90.5167623  83.6436167
  25.8888164  91.3863034  83.4197382  25.6250452  90.2003907  84.3230197
  19.9561025  94.2563190  71.3766249  20.1235428  95.1243427  71.7436720
  19.7658194  94.4190472  70.4527538  26.1133502  95.2362709  80.7229517
  25.2050380  95.1678118  80.4288278  26.0621098  95.7134654  81.5511342
  19.9350246  96.7120848  72.3612916  19.8149871  97.1577899  73.1998396
  19.2402835  97.0606166  71.8026454  27.9795149  93.4379148  82.5007391
  27.3369529  93.7311681  81.8547185  27.4750077  93.3232068  83.3060587
  25.6335312  97.1842321  73.1893250  26.5453168  97.4169708  73.0140948
  25.1244959  97.7679365  72.6268329  20.2707150  96.5439556  84.1988100
  21.1168345  96.9678969  84.3422749  20.2105788  95.8873180  84.8926663
  23.4206595  94.2043924  85.8569273  23.1767527  94.9585985  85.3203549
  23.6966526  94.5829272  86.6916520  22.9771287  93.3600357  81.4383111
  22.1155766  93.6581611  81.7299848  23.0033722  93.5770756  80.5064144
  34.5796879  99.9693240  79.0553868  33.8260588  99.4000638  78.8997872
  34.7144420  99.9355905  80.0024502  19.3730808  92.3356102  88.9843199
  20.1140521  92.9363255  88.9047661  19.6048731  91.5933739  88.4261241
  23.3187971  88.3637204  83.2607480  22.9752240  89.2538846  83.1846591
  23.6866933  88.1738862  82.3977065  20.8685365  93.1995516  76.8265154
  20.0126961  92.8102367  76.6470793  21.2812316  93.2787477  75.9664939
  22.3984511  90.7341860  81.2256714  21.8949307  90.6971995  80.4124519
  22.6915118  91.6434602  81.2853370  18.6427397  90.8180589  80.2322895
  19.5080394  90.6223398  79.8728785  18.7104906  90.5890941  81.1592252
  23.0724557  96.2272908  73.5939697  22.7674692  96.5419057  74.4449840
  24.0254999  96.3054328  73.6367030  16.2489716  93.0482797  77.6039262
  16.8233468  92.8257979  76.8712455  16.8360699  93.1171492  78.3567863
  25.3069293  98.9356524  78.4103639  25.8201175  99.5686516  78.9125348
  25.9570517  98.3357720  78.0446999  16.5759303  95.0787258  71.6235147
  15.7396616  95.4161945  71.9444422  16.4364073  94.9436238  70.6862284
  18.5512384  89.9224046  76.3314332  17.8976796  89.6073063  75.7070946
  18.5092858  89.2999787  77.0574155  21.7850124  96.4105980  80.6561979
  20.8672686  96.6320927  80.4983667  22.2010268  96.4852290  79.7973687
  22.5685172  97.8097395  75.7864659  23.3156991  98.3218793  75.4771782
  22.8376762  97.4881448  76.6469053  25.0164009  94.8454512  77.7683449
  24.2786766  94.3331898  78.0993691  25.2690783  94.4054893  76.9566726
  25.1175636  87.6230764  78.3625218  25.4234513  86.7628127  78.0751133
  25.8428241  88.2148384  78.1624212  22.9263288  97.0003441  85.4606682
  23.2812676  97.2274914  86.3201148  23.5735419  97.3321818  84.8383937
  16.8203151  94.1079972  82.2453023  17.4602530  93.9668731  81.5475986
  15.9880681  93.8214485  81.8691625  13.8231767  94.0780297  77.0226010
  14.0838585  94.9925630  76.9135170  14.6448940  93.6104740  77.1722623
  21.1982265  92.1179995  86.2090495  20.5510180  92.8169945  86.1154972
  21.9683280  92.5516139  86.5766743  16.4497683  94.9234486  68.8233054
  15.5727150  94.8023286  68.4595301  16.9255437  94.1320564  68.5711943
  22.9458260  93.0855406  78.7129780  23.4426959  92.3325368  78.3930850
  22.1745241  93.1219722  78.1472989  30.7988017  98.7895771  80.3548072
  30.7877893  99.6720486  79.9842005  29.9305396  98.4367322  80.1602609
  19.5293228  95.2272789  78.4401465  19.1591016  94.6743829  79.1282370
  20.0252321  94.6230922  77.8876465  27.4160592  97.6844412  76.8218238
  27.8821044  98.5172404  76.7478540  27.8668092  97.2189394  77.5263496
  25.3877254  90.0524999  80.8609139  24.4740334  90.2829226  81.0291346
  25.8170356  90.1363443  81.7123171  25.1583713  98.2414891  83.3609033
  24.5055163  98.4890798  82.7061486  25.5364093  97.4279029  83.0271510
  14.9258562  92.6376779  84.6854571  14.9899889  93.4991610  84.2731968
  14.8625682  92.0250781  83.9526929  14.7070624  94.5932338  80.2473508
  13.9857210  95.2068305  80.1080982  15.4963880  95.1290102  80.1690154
  17.5096938  91.9286764  86.5214160  18.0331340  92.1749061  87.2840470
  17.2909271  92.7606799  86.1017298  12.9064219  94.1990439  74.3885285
  12.5776925  93.3187818  74.2060391  13.2603590  94.1438107  75.2761674
  16.0206042  94.4863408  74.7560763  16.3602115  95.0149330  74.0339371
  16.4678163  94.8243815  75.5319329  18.7149483  92.8700459  84.2063831
  18.3746303  92.0708272  84.6084511  18.0088489  93.1702170  83.6340664
  19.3665955  89.9549772  82.6591154  20.1892024  89.4810250  82.5370044
  19.6104018  90.7340255  83.1589840  18.0074189  92.9838030  72.9554055
  18.7282552  93.3619283  72.4517772  17.3839493  93.7026907  73.0589033
  22.1505312  93.6883179  73.8912388  22.3668926  94.5707817  73.5901216
  21.6699379  93.2969392  73.1618030  18.7500916  93.6371440  80.5164022
  18.7362485  92.7412533  80.1796320  19.4673344  93.6442104  81.1502308
  20.6027047  94.0708780  82.5617149  20.3444825  94.9925851  82.5601480
  20.0712087  93.6739215  83.2517614  18.1537812  92.5185820  75.7851592
  18.2753723  91.5902467  75.9842480  17.8639855  92.5324506  74.8729908
  21.0229003  90.2040731  78.9218312  21.0450699  90.2680064  77.9670291
  21.4397062  89.3645240  79.1158818  31.4012627  99.9395990  76.9597534
  31.8443773  99.1903316  76.5616658  30.5239137  99.9306127  76.5771266
  25.5335375  97.4082335  87.9034697  26.4345238  97.2688800  87.6118695
  25.6083349  97.5736790  88.8432874  19.8678180  94.7849190  86.7487883
  18.9981490  95.0782756  86.4770472  20.1037661  95.3689635  87.4695147
  27.9936998  98.9680964  85.2997470  28.4691119  99.1608610  84.4916321
  27.0702563  99.0240149  85.0540853  22.5717214  91.0028807  84.2653304
  23.0899158  91.7389834  83.9399792  22.2172347  91.3092800  85.1000063
  22.8229808  87.4229090  79.7854200  23.1031562  86.7552279  80.4114627
  23.6080415  87.6158185  79.2728864  26.6938667  95.8446724  83.5325775
  27.6456090  95.9444821  83.5537999  26.5242117  95.0524992  84.0423860
  24.7153046  92.9302307  83.7185176  24.1202978  93.2107320  83.0231665
  24.4302743  93.4196208  84.4901917  29.1726744  99.0652843  82.6468075
  29.1403065  98.1268844  82.8327759  29.7827368  99.1436880  81.9133900
  29.3221233  95.8563887  82.6926358  28.8060282  95.0722343  82.5056287
  30.2061181  95.5282603  82.8572878  26.9831960  89.6004902  78.6522171
  26.7856781  89.2919991  79.5365503  27.5931665  90.3266541  78.7820101
  34.9903294 100.1268850  81.7874112  35.7206683  99.8654138  82.3481815
  34.3810240  99.3897572  81.8276180  33.0718591  98.2676713  82.3848563
  32.3451755  98.1332678  81.7765055  32.6565878  98.5753541  83.1905281
  19.1952992  95.8598873  68.6250164  18.2884448  95.5631985  68.7012878
  19.4728973  95.5628691  67.7584451  20.8115058  90.4035762  74.7794406
  20.0015786  90.0582847  75.1549652  21.4999475  90.0943306  75.3682017
  22.7405606  89.4813809  76.4018702  23.2936645  89.9009263  77.0608725
  22.9775693  88.5549557  76.4441658  17.9651777  92.7185808  68.7662144
  18.8270941  93.0440706  69.0257961  18.1502121  91.9317304  68.2535209
  26.1184414  91.5914334  75.9097367  25.5383083  92.2499138  75.5275419
  25.8520346  90.7691679  75.4984784  24.5687980  90.9919392  78.1118687
  25.0687758  91.1035927  77.3033006  25.2123588  90.6880445  78.7519495
  24.9009292  93.7514425  74.9653715  24.0135147  94.0364075  74.7473910
  25.3163281  93.5908188  74.1180992  28.2523828  93.7760946  78.6808054
  29.0284218  94.2657398  78.9532671  27.5271962  94.2019000  79.1379924
  30.6896386  94.4888565  79.7381995  31.2840877  94.2484301  79.0275303
  30.7622970  93.7695696  80.3655531  28.6855121  95.0558693  76.0054124
  28.4292055  94.6555328  76.8362332  28.0607989  95.7702487  75.8804264
  32.9967459  97.7954766  78.5125416  32.4367017  97.8647955  79.2856978
  32.3910962  97.6195750  77.7924912  18.9181220  89.9581851  72.0541853
  18.9059890  90.9023691  72.2110123  19.8104642  89.7751996  71.7601314
  22.7333340  86.5524628  76.3087789  21.9665735  85.9983114  76.4544472
  23.1444044  86.6246496  77.1701941  33.5727094 101.8816545  76.3087789
  32.8059490 101.3275032  76.4544472  33.9837799 101.9538414  77.1701941
   2.0615617  30.9879610  65.7799174   1.3079325  30.4187008  65.6243179
   2.1963158  30.9542274  66.7269809   2.4722032  31.1455220  68.5119419
   3.2025421  30.8840508  69.0727122   1.8628978  30.4083942  68.5521486
   2.0642215  45.4897649  67.9300678   2.7020625  45.3704397  67.2264018
   1.9463058  46.4378493  67.9888630   1.6183484  43.2149103  65.0053886
   2.4046573  42.7968526  64.6544303   1.8822188  44.1195195  65.1735535
   1.7893561  48.6521954  59.7042543   1.1539394  48.7256580  60.4163448
   1.4590968  49.2415552  59.0261622   7.0191911  43.1524336  65.9086865
   7.7517083  42.5823553  66.1424694   6.2631267  42.7645937  66.3493370
   4.5417331  36.8645911  70.3681473   4.2100656  37.7341321  70.1442688
   3.9462945  36.5482195  71.0475504   1.0348851  49.0658457  69.7677386
   0.7349574  49.9683495  69.6593193   0.6899910  48.7990640  70.6198539
   4.4345995  41.5840997  67.4474823   3.5262872  41.5156405  67.1533584
   4.3833590  42.0612942  68.2756649   6.3007641  39.7857435  69.2252697
   5.6582021  40.0789968  68.5792492   5.7962569  39.6710355  70.0305894
   3.9547805  43.5320608  59.9138557   4.8665661  43.7647995  59.7386254
   3.4457452  44.1157652  59.3513635   2.2388572  47.9545236  73.5499849
   2.6471928  47.5127647  72.8054482   1.5165834  47.3797864  73.8034042
   2.5617387  48.5146427  67.3052138   1.9326249  48.6792141  66.6028206
   2.1743049  48.9288036  68.0763102   6.4406619  49.4500865  64.6596502
   5.7557657  49.8299766  64.1093535   6.5250468  50.0596191  65.3928450
   1.7419088  40.5522211  72.5814580   1.4980020  41.3064272  72.0448855
   2.0179018  40.9307559  73.4161827   3.6957550  47.0960824  71.2591845
   3.9074446  47.7392583  70.5826226   3.6487299  46.2623140  70.7913775
   4.8103378  49.9732779  69.4314203   5.6320822  49.5712966  69.1496884
   4.8065781  49.8701013  70.3830319  12.9009371  46.3171527  65.7799174
  12.1473080  45.7478926  65.6243179  13.0356913  46.2834192  66.7269809
   2.0157714  52.0911296  73.6135637   1.9976189  52.9120177  73.1215906
   2.9377634  51.9665371  73.8385778   1.6400463  34.7115492  69.9852787
   1.2964732  35.6017133  69.9091898   2.0079426  34.5217149  69.1222372
   1.6050746  44.7024103  58.4925222   1.0897369  45.4728707  58.7313610
   1.3328054  44.0289239  59.1158284   6.5785020  47.4556457  60.4278396
   5.8014463  47.1167617  59.9833558   7.2576501  47.4609081  59.7533361
   1.3937049  42.5751195  60.3185003   1.0887185  42.8897344  61.1695146
   2.3467491  42.6532615  60.3612336   4.8176327  46.9290439  67.0845004
   4.1600001  47.6189700  67.1725132   5.6216726  47.3186871  67.4278990
   3.6281786  45.2834811  65.1348945   4.1413667  45.9164803  65.6370655
   4.2783010  44.6836007  64.7692305   0.8897664  44.1575683  62.5109966
   1.6369483  44.6697080  62.2017088   1.1589254  43.8359735  63.3714360
   4.3943582  50.2640813  63.2628088   3.9405909  49.4231723  63.3193278
   3.7637549  50.9002211  63.6002868   3.3376501  41.1932799  64.4928755
   2.5999258  40.6810185  64.8238998   3.5903275  40.7533180  63.6812032
   2.8376521  52.1017310  64.1977906   3.1299495  52.6622367  63.4790272
   3.3475142  52.3945871  64.9531065   3.4388129  33.9709051  65.0870525
   3.7447006  33.1106414  64.7996440   4.1640734  34.5626671  64.8869519
   1.2475780  43.3481728  72.1851989   1.6025168  43.5753201  73.0446454
   1.8947911  43.6800105  71.5629244   6.9773517  46.4700164  62.8901318
   6.8391416  46.6601760  61.9622507   6.6209736  47.2319547  63.3469369
   7.0042897  48.5376691  67.9012589   7.4379403  48.4451980  68.7495643
   7.7174477  48.5134192  67.2632605   7.8658446  48.5800392  70.4345474
   8.0594336  49.4846202  70.6804749   7.7659064  48.1207811  71.2684059
   2.9273555  48.7307134  76.0086355   2.7759061  48.5017686  75.0916439
   2.9178234  49.6877736  76.0217700   2.9811630  47.0527349  56.4257057
   2.3640800  46.3274177  56.3290109   2.5128118  47.8136709  56.0824131
   4.6365761  51.7626257  74.0862837   4.5778308  51.0785477  73.4193420
   5.0385280  52.5045247  73.6343463   4.6383169  49.7265841  72.3176817
   3.7509948  49.3891763  72.4403215   5.2081720  48.9948872  72.5545582
   1.2670752  39.4333693  65.4375087   1.7639451  38.6803655  65.1176157
   0.4957733  39.4698009  64.8718296   9.1200509  45.1374058  67.0793378
   9.1090386  46.0198774  66.7087311   8.2517889  44.7845609  66.8847915
   2.3500533  48.1905380  63.0113510   1.4156811  48.3106842  62.8418214
   2.5277201  47.2877847  62.7473520   5.7373084  44.0322699  63.5463544
   6.2033536  44.8650691  63.4723847   6.1880584  43.5667681  64.2508803
   3.8049315  50.3766521  60.5449696   4.0809159  50.2623115  61.4543570
   2.9353814  49.9784005  60.5061869   3.7089747  36.4003286  67.5854446
   2.7952826  36.6307513  67.7536653   4.1382848  36.4841730  68.4368478
   3.4796205  44.5893178  70.0854340   2.8267655  44.8369086  69.4306792
   3.8576585  43.7757316  69.7516817   0.7745545  53.5521057  61.4497558
   1.3033311  53.0413511  60.8367721   1.0373764  53.2363587  62.3143091
   3.1217435  51.4641174  76.6626647   3.6657339  52.0771133  76.1681602
   2.5404280  52.0220753  77.1793660   1.4074948  54.5861892  67.7941675
   1.2826088  53.7851632  67.2852620   2.0654039  55.0808086  67.3055645
   3.4709857  52.3870912  69.4221225   2.5240192  52.2676264  69.3499552
   3.8192630  51.4993410  69.5047486   4.0790412  53.0052187  66.7090450
   5.0036959  52.7995049  66.5714901   3.9105715  52.7568588  67.6179791
   3.8685728  53.5237855  62.0652541   4.0422606  52.9584277  61.3126394
   4.3614619  54.3238750  61.8832031   9.7225119  46.2874278  63.6842841
  10.1656265  45.5381603  63.2861964   8.8451630  46.2784414  63.3016573
   4.8560901  52.8404619  59.1649440   5.5511805  53.4611312  59.3836754
   5.1984051  51.9899970  59.4401818   6.7552324  50.2904325  60.6936770
   7.2803648  50.6291597  59.9686090   6.6674676  49.3551340  60.5099905
   6.4446230  50.9237228  75.9987968   5.6541773  50.9061367  75.4592468
   6.2079584  51.4625522  76.7537005   6.5644105  47.7729695  73.3120697
   6.6142110  47.6079702  74.2536220   6.4558028  46.9056954  72.9218578
   3.8547867  43.7560623  74.6280004   4.7557730  43.6167088  74.3364001
   3.9295842  43.9215078  75.5678181   8.0662302  50.1926636  73.5562718
   7.7747110  50.5556617  74.3926179   7.4534433  49.4793645  73.3776051
   9.2657984  47.7579516  66.0765289  10.1004875  48.1969320  66.2402849
   9.4017113  47.2818169  65.2573534   6.3149490  45.3159251  72.0242776
   6.7903611  45.5086897  71.2161628   5.3915055  45.3718437  71.7786160
   0.8929706  37.3507094  70.9898610   1.4111650  38.0868121  70.6645099
   0.5384839  37.6571088  71.8245369   1.1442301  33.7707377  66.5099507
   1.4244054  33.1030566  67.1359933   1.9292907  33.9636473  65.9974171
   5.0151159  42.1925011  70.2571082   5.9668582  42.2923109  70.2783306
   4.8454609  41.4003279  70.7669166   3.0365538  39.2780594  70.4430483
   2.4415470  39.5585607  69.7476972   2.7515235  39.7674495  71.2147224
   2.1673029  53.2303521  59.2033116   3.1003702  53.1649083  59.4065991
   2.0796242  54.0659788  58.7447648   4.7961045  52.5469391  56.1637063
   4.7174677  52.2129255  57.0572821   5.6170712  53.0391159  56.1628535
   7.4939237  45.4131131  69.3713382   7.4615557  44.4747131  69.5573066
   8.1039860  45.4915167  68.6379207   7.6433725  42.2042174  69.4171665
   7.1272774  41.4200631  69.2301594   8.5273674  41.8760891  69.5818184
   5.3044452  35.9483190  65.3767478   5.1069273  35.6398278  66.2610810
   5.9144158  36.6744829  65.5065407  13.3115787  46.4747137  68.5119419
  14.0419175  46.2132426  69.0727122  12.7022732  45.7375859  68.5521486
  11.3931084  44.6155000  69.1093870  10.6664247  44.4810965  68.5010361
  10.9778371  44.9231829  69.9150588   1.0618099  35.8292097  63.1264009
   1.6149137  36.2487550  63.7854032   1.2988185  34.9027845  63.1686965
   4.4396906  37.9392622  62.6342673   3.8595575  38.5977426  62.2520726
   4.1732838  37.1169966  62.2230091   2.8900472  37.3397679  64.8363994
   3.3900251  37.4514214  64.0278312   3.5336080  37.0358732  65.4764802
   3.2221784  40.0992712  61.6899021   2.3347639  40.3842363  61.4719216
   3.6375773  39.9386475  60.8426298   6.5736320  40.1239233  65.4053361
   7.3496710  40.6135685  65.6777978   5.8484454  40.5497287  65.8625230
   9.0108879  40.8366852  66.4627301   9.6053369  40.5962588  65.7520610
   9.0835462  40.1173983  67.0900838   2.3664997  49.8637387  55.7847041
   3.0700847  50.0687389  56.4004697   1.6427646  50.4314149  56.0496125
   3.1962808  45.6147248  61.9049312   3.1398009  46.0715799  61.0656944
   3.7491150  44.8537933  61.7272154   7.0067613  41.4036980  62.7299431
   6.7504548  41.0033616  63.5607639   6.3820482  42.1180774  62.6049570
  11.3179951  44.1433053  65.2370722  10.7579509  44.2126242  66.0102285
  10.7123455  43.9674038  64.5170219   4.2751695  50.3019916  57.8345501
   5.1097299  49.8701114  57.6522976   4.1136038  50.1301930  58.7622396
   3.9297587  46.8052029  59.2001841   3.8746391  46.6396301  58.2590285
   3.3043642  47.5128062  59.3564030   1.2443494  49.1100941  78.5255404
   2.1134654  49.2841593  78.1642038   0.7650246  49.9295358  78.4031133
  12.9035970  60.8189567  67.9300678  13.5414380  60.6996314  67.2264018
  12.7856813  61.7670411  67.9888630   9.7125676  60.7716995  67.8662203
   9.3744188  60.6558060  66.9782738  10.5815444  60.3708160  67.8463209
   5.5712492  62.6252472  63.8559094   5.0077357  62.5342408  63.0875382
   5.4564887  61.8052376  64.3361586  10.1945459  61.9251847  73.8248408
  10.1834100  61.5304645  72.9528912  10.3566099  61.1917919  74.4182180
   3.1176924  64.1203663  66.6943314   3.9098216  63.7794488  66.2789614
   3.3573574  64.2298638  67.6145468  11.1512050  66.2923439  59.1673559
  10.5000030  66.8777520  58.7807573  11.9456413  66.8229634  59.2268596
   5.0767678  63.3812576  59.5660693   5.8498554  62.8341563  59.4273569
   5.4293076  64.2456826  59.7775155   6.9152720  64.7088959  72.7727592
   6.6242586  65.6134590  72.6574259   7.5509705  64.7505486  73.4871662
   7.8408927  62.0865807  69.3628952   8.4372499  61.8621830  68.6485915
   7.8983899  61.3450553  69.9654400   7.4133955  59.5405243  57.1979143
   7.6659476  59.0186764  56.4362606   6.4758515  59.3771388  57.3005827
   7.1330244  61.4433348  59.4003518   7.0166502  60.7678252  60.0684602
   7.2432504  60.9565722  58.5835671   9.4761785  60.9043496  63.1050207
   9.1119992  60.3774117  63.8163129  10.3328901  60.5141965  62.9316693
  15.3811086  52.1937828  70.3681473  15.0494411  53.0633239  70.1442688
  14.7856699  51.8774112  71.0475504   9.1167272  55.9333395  58.1011556
   9.2841674  56.8013632  58.4682027   8.9264441  56.0960677  57.1772845
  11.8742605  64.3950374  69.7677386  11.5743328  65.2975413  69.6593193
  11.5293665  64.1282557  70.6198539   5.3255087  60.8464171  65.8014091
   4.4005583  60.7140385  66.0091782   5.5739500  61.6258390  66.2984033
   9.0956493  58.3891053  59.0858223   8.9756118  58.8348104  59.9243703
   8.4009081  58.7376370  58.5271761   2.6863898  60.4897445  66.6357880
   2.8156279  60.7431923  67.5497291   2.0061349  61.0825153  66.3162535
   6.8563385  71.1594695  62.7348354   6.7787415  72.1102520  62.8136834
   6.2525029  70.8140567  63.3923280   9.3480615  58.3322560  75.3909721
   8.5713949  58.8916480  75.3812585   9.9871178  58.8179343  75.9124591
   7.6026987  61.1408013  74.9527688   8.3441672  61.6793057  74.6762511
   6.8963973  61.7674302  75.1099240  13.0782327  63.2837154  73.5499849
  13.4865683  62.8419564  72.8054482  12.3559588  62.7089781  73.8034042
   9.4313397  58.2209761  70.9233406  10.2774592  58.6449174  71.0668055
   9.3712035  57.5643385  71.6171969  13.4011141  63.8438344  67.3052138
  12.7720004  64.0084059  66.6028206  13.0136804  64.2579954  68.0763102
  12.5812842  55.8814129  72.5814580  12.3373774  56.6356189  72.0448855
  12.8572773  56.2599477  73.4161827  14.5351305  62.4252741  71.2591845
  14.7468200  63.0684501  70.5826226  14.4881053  61.5915058  70.7913775
  12.1377534  55.0370562  68.1628418  11.2762013  55.3351815  68.4545155
  12.1639969  55.2540961  67.2309450   8.9539103  63.5812752  64.5702223
   9.4177449  63.8600455  63.7806846   8.6895901  62.6796197  64.3875314
   5.8463184  63.1284234  67.5081986   6.4164541  63.5571502  66.8699471
   6.4371296  62.8466819  68.2066172   7.8907989  59.7035905  61.3791788
   8.5932033  60.1556949  61.8465715   7.5588618  59.0619724  62.0071681
   6.3388351  58.2947661  75.7542998   5.7087011  58.9763942  75.9878395
   6.2324439  58.1830743  74.8096136   1.6333323  57.9619458  66.6808922
   0.8432377  58.2176986  66.2049032   2.1244571  58.7767795  66.7860962
  15.6497133  65.3024697  69.4314203  16.4714577  64.9004884  69.1496884
  15.6459536  65.1992931  70.3830319   3.5848069  58.3264037  63.6392399
   2.7879232  58.4382731  64.1575894   3.3573661  58.6650689  62.7733289
   9.4153736  64.8508740  71.5874913   9.4798169  65.3129147  72.4233085
   8.7064660  64.2206105  71.7157223   9.1301754  66.5176847  61.4553894
   8.9947429  67.3628383  61.8838741   9.6711566  66.7196125  60.6919827
   5.6169094  52.5968427  78.1168249   5.2236039  52.0434626  78.7915893
   6.4335234  52.9079006  78.5074766   2.5831151  64.0352286  62.0281819
   3.0955672  64.8295536  62.1787383   3.2353864  63.3378576  61.9615420
   4.3926036  67.1518042  64.1104572   4.5692664  68.0736006  63.9225556
   5.1882870  66.8376461  64.5398952   8.5337055  54.0126306  75.7088505
   9.2746768  54.6133460  75.6292968   8.7654977  53.2703944  75.1506548
   3.6778393  59.1982674  73.9866735   3.5631908  58.2967931  74.2873834
   2.8222910  59.4446370  73.6351552  10.7570230  67.1400414  75.5854236
  10.3134085  66.3536793  75.2675140  11.4187444  67.3279564  74.9198126
   5.5157352  68.6696216  70.1114914   6.0664777  68.5413279  69.3391908
   4.6768827  68.9691105  69.7609807  12.8551468  67.4203214  73.6135637
  12.8369944  68.2412095  73.1215906  13.7771388  67.2957289  73.8385778
   9.3124523  64.9347343  74.4559145   9.8452859  64.1735632  74.2258453
   8.7838604  64.6420995  75.1983300  12.4794218  50.0407409  69.9852787
  12.1358487  50.9309051  69.9091898  12.8473180  49.8509067  69.1222372
   0.5480068  62.3640940  62.8041389   1.3855290  62.7737948  62.5875097
   0.7258336  61.4240382  62.7741583  10.0291611  54.8765721  63.5510460
   9.1733208  54.4872572  63.3716099  10.4418563  54.9557682  62.6910246
  11.5590758  52.4112065  67.9502020  11.0555554  52.3742200  67.1369826
  11.8521365  53.3204807  68.0098677   7.8033644  52.4950794  66.9568202
   8.6686641  52.2993603  66.5974091   7.8711153  52.2661146  67.8837559
  10.6777235  64.0633336  61.9677957  10.1498597  63.3286095  61.6551195
  10.1764738  64.8408012  61.7217926  15.6570081  62.2582356  67.0845004
  14.9993756  62.9481618  67.1725132  16.4610481  62.6478788  67.4278990
   5.4095963  54.7253002  64.3284569   5.9839715  54.5028184  63.5957762
   5.9966945  54.7941697  65.0813170   5.7365550  56.7557463  58.3480454
   4.9002862  57.0932150  58.6689729   5.5970320  56.6206443  57.4107591
   7.7118631  51.5994251  63.0559638   7.0583043  51.2843268  62.4316253
   7.6699105  50.9769992  63.7819461   8.8229835  61.8813546  54.9712930
   7.9156897  61.6502800  55.1704079   9.3200867  61.0851165  55.1586912
  11.7297914  70.5911053  57.8909616  11.0559613  70.8942750  58.4994574
  12.1163736  71.3940134  57.5415074  10.9456371  58.0876185  67.3807286
  10.0278932  58.3091132  67.2228974  11.3616515  58.1622495  66.5218993
  10.0018069  61.9826141  59.4936920   9.0929288  61.6985174  59.5909390
  10.0313153  62.4025220  58.6340227  14.2781883  49.3000969  65.0870525
  14.5840760  48.4398332  64.7996440  15.0034488  49.8918589  64.8869519
   8.5502963  59.5954762  65.5946716   8.6051573  58.6428598  65.5189192
   7.7394165  59.7514201  66.0788014   9.6994157  63.5234885  56.8324999
   9.2613587  62.8070744  56.3730636  10.4404598  63.7511000  56.2710090
   6.4895323  58.2131821  63.3537095   5.6763188  58.5125992  63.7602287
   6.9854317  57.8187510  64.0711577   8.6403901  68.2089578  65.2871359
   8.5980080  68.4350425  64.3579891   9.5566600  67.9752953  65.4357160
  12.0869535  58.6773646  72.1851989  12.4418922  58.9045119  73.0446454
  12.7341666  59.0092023  71.5629244   5.9809398  55.7850177  68.9698330
   6.6208777  55.6438936  68.2721293   5.1486928  55.4984690  68.5936932
   6.7569702  65.0852607  65.0833322   7.5510300  64.5902927  64.8815897
   6.0461394  64.5570470  64.7201028  11.5764546  67.4670703  69.4345690
  11.6301568  68.0361639  70.2023406  10.7079327  67.6372588  69.0699727
   3.0652465  59.2295689  61.1593075   2.1350053  59.1680145  61.3763037
   3.1609937  58.7071642  60.3629716   2.9838014  55.7550502  63.7471316
   3.2444831  56.6695835  63.6380477   3.8055186  55.2874944  63.8967929
   4.4562939  57.1688259  70.9170141   5.1285993  56.9605621  70.2682790
   3.6292726  56.9710345  70.4775373  10.3588511  53.7950200  72.9335802
   9.7116426  54.4940150  72.8400278  11.1289527  54.2286344  73.3012050
  13.7667309  64.0599052  76.0086355  13.6152816  63.8309604  75.0916439
  13.7571989  65.0169654  76.0217700  10.5352646  61.6330965  70.9932621
  11.4644706  61.7842124  70.8201589  10.1143676  61.7214986  70.1381268
   9.3340978  65.6581629  68.7631159   9.1952063  65.2900414  69.6357097
   8.5455574  66.1729269  68.5915117   9.9289130  70.7590726  60.1056696
  10.1040885  70.2878769  60.9202318   9.2421918  71.3856492  60.3337956
  10.8846193  65.0363232  66.1519997  10.5496025  64.9964002  67.0477647
  10.3850138  64.3707948  65.6790407   4.8590437  60.4430862  71.6772578
   4.7210235  59.7111101  72.2784117   5.7695360  60.3539762  71.3956766
   7.4872737  60.1550821  71.1656258   8.1972356  59.5144014  71.1242876
   7.4442045  60.4063716  72.0882438  15.4759516  67.0918175  74.0862837
  15.4172062  66.4077395  73.4193420  15.8779034  67.8337165  73.6343463
   6.2001671  57.1416039  72.9851897   5.6639028  56.6906778  73.6373494
   5.6118380  57.2761948  72.2422362   4.4950215  73.9080089  66.8796556
   4.7346813  74.5398613  67.5575574   3.6519411  73.5568129  67.1661915
   5.6103930  56.6004691  55.5478361   4.7333397  56.4793491  55.1840608
   6.0861683  55.8090769  55.2957249  15.4776923  65.0557759  72.3176817
  14.5903702  64.7183680  72.4403215  16.0475474  64.3240790  72.5545582
   1.9340793  56.2772047  70.0704892   1.8498981  55.6697716  69.3355302
   1.1123499  56.7681065  70.0714388   9.0078077  69.7159211  69.2838060
   8.9348248  70.5214182  69.7957364   8.5655470  69.9151177  68.4586081
   8.7967856  68.9530981  62.7940881   8.0135378  69.4952661  62.8879106
   9.4960601  69.4704961  63.1935123  12.1064506  54.7625610  65.4375087
  12.6033206  54.0095573  65.1176157  11.3351488  54.7989927  64.8718296
  11.4676760  69.6146045  71.4396218  12.1804732  70.2493510  71.3672120
  10.9766789  69.7109911  70.6236220   8.6899475  56.9042993  65.1646771
   8.3197263  56.3514034  65.8527677   9.1858568  56.3001127  64.6121771
   6.5188674  67.3640488  72.2601789   7.2198133  67.9976971  72.4131184
   6.0483789  67.7055220  71.4997429  14.5483501  51.7295204  67.5854446
  13.6346581  51.9599431  67.7536653  14.9776603  51.8133648  68.4368478
  14.3189960  59.9185096  70.0854340  13.6661410  60.1661003  69.4306792
  14.6970340  59.1049234  69.7516817  11.2797134  69.9544789  64.1882510
  11.4619528  69.1366445  64.6510262  12.1030120  70.1712481  63.7507400
  11.6139299  68.8812974  61.4497558  12.1427065  68.3705429  60.8367721
  11.8767519  68.5655504  62.3143091  10.3677533  60.6604907  76.5720377
   9.6918170  60.5599036  77.2422752  11.1905167  60.5044121  77.0356374
   2.1156392  66.8976844  69.1932892   2.7009829  66.1520531  69.3260796
   1.9181230  67.2080800  70.0769556   4.9695047  69.9328091  64.2095334
   4.3005422  70.4174219  63.7259374   4.8307917  70.1797311  65.1238713
   9.1100316  71.9671834  70.8077993   9.6618624  72.1303456  71.5727078
   9.4506509  72.5576272  70.1358018   4.0864809  54.3146984  71.4099877
   4.1506135  55.1761815  70.9977275   4.0231929  53.7020986  70.6772236
   3.5617081  56.3870117  75.0572912   4.1889120  56.0047194  75.6710436
   2.7045000  56.1684319  75.4228604  13.9611190  66.7933092  76.6626647
  14.5051094  67.4063050  76.1681602  13.3798035  67.3512670  77.1793660
  12.2468703  69.9153810  67.7941675  12.1219842  69.1143550  67.2852620
  12.9047794  70.4100003  67.3055645   3.8676871  56.2702542  66.9718815
   3.1463457  56.8838510  66.8326288   4.6570127  56.8060307  66.8935461
  14.3103611  67.7162830  69.4221225  13.3633947  67.5968181  69.3499552
  14.6586384  66.8285328  69.5047486   6.6703185  53.6056969  73.2459467
   7.1937586  53.8519265  74.0085776   6.4515518  54.4377004  72.8262604
   2.0670466  55.8760644  61.1130592   1.7383172  54.9958022  60.9305698
   2.4209836  55.8208312  62.0006981  11.3150045  67.5115546  65.6225577
  11.1675007  66.5832254  65.8033147  12.1403538  67.5335637  65.1382652
   5.1812289  56.1633613  61.4806069   5.5208361  56.6919535  60.7584678
   5.6284409  56.5014019  62.2564636  14.9184166  68.3344105  66.7090450
  15.8430714  68.1286966  66.5714901  14.7499470  68.0860506  67.6179791
   7.8755730  54.5470664  70.9309137   7.5352550  53.7478477  71.3329817
   7.1694736  54.8472375  70.3585971   8.5272201  51.6319976  69.3836460
   9.3498271  51.1580455  69.2615351   8.7710265  52.4110460  69.8835147
   7.1680436  54.6608235  59.6799362   7.8888798  55.0389488  59.1763079
   6.5445740  55.3797112  59.7834340   6.0510780  58.3239097  67.1928439
   5.9055361  58.6379400  68.0852721   5.5735984  58.9423997  66.6399338
   7.9107163  55.3141645  67.2409329   7.8968732  54.4182738  66.9041627
   8.6279591  55.3212309  67.8747615   9.7633294  55.7478985  69.2862456
   9.5051072  56.6696056  69.2846786   9.2318334  55.3509420  69.9762920
   7.3144059  54.1956025  62.5096899   7.4359970  53.2672672  62.7087786
   7.0246101  54.2094711  61.5975214  10.1835249  51.8810936  65.6463619
  10.2056946  51.9450269  64.6915598  10.6003308  51.0415444  65.8404125
   1.3122464  59.9914338  73.0246257   0.5704200  60.1396973  73.6110887
   0.9915209  60.2522603  72.1613006   9.2566127  69.5330316  72.8226647
   9.5653253  69.2879463  73.6949347  10.0541609  69.7376954  72.3345517
   9.2786739  71.6868226  65.0532024   8.8391729  71.1944604  65.7464880
  10.0294856  71.1441193  64.8124099   1.7579078  67.8779766  65.0556652
   2.5837098  67.5783538  64.6755295   1.4073130  67.1087389  65.5046440
   6.7260611  67.2306235  67.1254325   6.1040620  66.5676940  66.8256553
   7.3965478  67.2567367  66.4427973   6.7985139  55.7088023  76.7186831
   6.8473294  56.5850146  76.3364601   7.3407653  55.1665416  76.1458475
  17.2839984  66.2529146  75.9987968  16.4935528  66.2353285  75.4592468
  17.0473339  66.7917440  76.7537005  17.4037859  63.1021612  73.3120697
  17.4535864  62.9371620  74.2536220  17.2951783  62.2348871  72.9218578
   6.2874118  65.7810158  60.6012786   6.4362238  66.4645622  59.9479459
   7.0940561  65.7615248  61.1162242  14.6941622  59.0852540  74.6280004
  15.5951484  58.9459005  74.3364001  14.7689596  59.2506995  75.5678181
   9.0284427  56.4619395  73.4733190   8.1587736  56.7552961  73.2015779
   9.2643907  57.0459840  74.1940454  18.9056056  65.5218554  73.5562718
  18.6140864  65.8848534  74.3926179  18.2928187  64.8085562  73.3776051
  17.1543244  60.6451169  72.0242776  17.6297366  60.8378815  71.2161628
  16.2308810  60.7010354  71.7786160   4.0426751  61.8075336  61.6073855
   3.7972793  60.9037666  61.8054065   4.2122666  61.8092486  60.6653333
  11.7323461  52.6799012  70.9898610  12.2505405  53.4160039  70.6645099
  11.3778594  52.9863005  71.8245369   3.3122399  57.5403693  59.1060016
   2.6191643  57.6148048  58.4500052   3.0674150  56.7764037  59.6281533
  11.9836055  49.0999295  66.5099507  12.2637809  48.4322484  67.1359933
  12.7686662  49.2928390  65.9974171   9.7869524  68.2758289  58.0724533
   9.2143491  68.8948476  57.6195005  10.3602317  68.8257650  58.6064455
  15.8544913  57.5216929  70.2571082  16.8062336  57.6215026  70.2783306
  15.6848364  56.7295197  70.7669166  13.8759293  54.6072512  70.4430483
  13.2809225  54.8877525  69.7476972  13.5908990  55.0966413  71.2147224
  13.0066783  68.5595439  59.2033116  13.9397456  68.4941000  59.4065991
  12.9189996  69.3951705  58.7447648  15.6354800  67.8761309  56.1637063
  15.5568432  67.5421173  57.0572821  16.4564467  68.3683077  56.1628535
  18.3332991  60.7423048  69.3713382  18.3009311  59.8039049  69.5573066
  18.9433615  60.8207085  68.6379207  16.1438207  51.2775107  65.3767478
  15.9463028  50.9690195  66.2610810  16.7537912  52.0036746  65.5065407
  22.2324838  59.9446918  69.1093870  21.5058002  59.8102883  68.5010361
  21.8172125  60.2523746  69.9150588  10.0555015  63.6636847  76.8741243
  10.9758024  63.8415446  77.0681289  10.0204598  62.7192893  76.7220942
   8.3559239  57.5369078  55.3495471   7.4490695  57.2402190  55.4258185
   8.6335220  57.2398896  54.4829757   3.0517087  61.5737882  69.5164024
   3.2703097  62.5054990  69.5352058   3.4642861  61.2145856  70.3018828
   9.9721305  52.0805967  61.5039712   9.1622033  51.7353052  61.8794958
  10.6605722  51.7713511  62.0927324  11.9011853  51.1584014  63.1264009
  12.4542892  51.5779468  63.7854032  12.1381940  50.2319762  63.1686965
   7.9244952  57.1471088  78.9066773   7.8241679  58.0965445  78.8378864
   7.7066494  56.8189327  78.0342843   7.1258024  54.3956013  55.4907450
   7.9877188  54.7210911  55.7503268   7.3108368  53.6087509  54.9780516
   7.7876222  60.5768227  77.7231834   7.3043304  61.3768587  77.9295724
   7.8737162  60.5876172  76.7699278   1.0562182  62.4096606  65.6453654
   1.0332870  62.5084294  64.6935537   1.3662819  63.2561757  65.9670820
   3.7149560  64.4672761  69.7600268   4.6692814  64.4356704  69.6930200
   3.5162084  64.0063385  70.5750494   4.3048942  63.0373877  72.3271066
   5.1241831  63.5317956  72.3505903   4.5785750  62.1205846  72.2988633
   2.0699789  70.0092381  66.7770466   1.9354257  69.2492782  66.2108464
   1.6531851  70.7333281  66.3099255  13.2058752  65.1929304  55.7847041
  13.9094602  65.3979307  56.4004697  12.4821401  65.7606066  56.0496125
   5.2268915  70.9061698  66.9888909   5.1101299  71.8507130  66.8867599
   4.4061361  70.6035259  67.3774708  12.0837249  64.4392859  78.5255404
  12.9528408  64.6133511  78.1642038  11.6044000  65.2587276  78.4031133
   8.0787467  51.6352056  58.7787159   8.0666137  52.5793896  58.9355430
   8.9710889  51.4522201  58.4846620   6.2523429  71.5589960  70.2044837
   7.1550675  71.5913570  70.5211332   6.0260799  70.6290411  70.2191173
   8.0077031  70.3120946  66.8654916   7.0572662  70.3122808  66.7519288
   8.3109517  69.5653681  66.3490950  11.8939586  48.2294833  63.0333096
  11.1271982  47.6753319  63.1789778  12.3050291  48.3016701  63.8947248
   3.8981347  54.5179628  77.1238277   4.7612809  54.1616433  77.3341602
   3.3246758  54.1793523  77.8113681  16.4106246  77.9544389  63.8559094
  15.8471111  77.8634326  63.0875382  16.2958641  77.1344294  64.3361586
  21.0339214  77.2543765  73.8248408  21.0227854  76.8596563  72.9528912
  21.1959853  76.5209837  74.4182180  13.9570678  79.4495581  66.6943314
  14.7491970  79.1086405  66.2789614  14.1967328  79.5590556  67.6145468
  21.9905805  81.6215357  59.1673559  21.3393785  82.2069437  58.7807573
  22.7850168  82.1521552  59.2268596  15.9161432  78.7104494  59.5660693
  16.6892308  78.1633481  59.4273569  16.2686831  79.5748743  59.7775155
  17.7546475  80.0380876  72.7727592  17.4636341  80.9426507  72.6574259
  18.3903459  80.0797404  73.4871662  18.6802682  77.4157725  69.3628952
  19.2766254  77.1913747  68.6485915  18.7377653  76.6742470  69.9654400
  18.2527710  74.8697160  57.1979143  18.5053231  74.3478681  56.4362606
  17.3152269  74.7063306  57.3005827  23.4681070  79.3105789  59.7042543
  22.8326903  79.3840415  60.4163448  23.1378477  79.8999388  59.0261622
  17.9723999  76.7725266  59.4003518  17.8560257  76.0970170  60.0684602
  18.0826259  76.2857640  58.5835671  16.1648841  76.1756089  65.8014091
  15.2399338  76.0432303  66.0091782  16.4133254  76.9550308  66.2984033
  19.9350247  73.7182970  59.0858223  19.8149873  74.1640021  59.9243703
  19.2402836  74.0668288  58.5271761  13.5257652  75.8189362  66.6357880
  13.6550033  76.0723841  67.5497291  12.8455104  76.4117070  66.3162535
  17.6957140  86.4886612  62.7348354  17.6181169  87.4394437  62.8136834
  17.0918783  86.1432485  63.3923280  20.1874369  73.6614478  75.3909721
  19.4107703  74.2208398  75.3812585  20.8264932  74.1471261  75.9124591
  25.6335314  74.1904444  59.9138557  26.5453170  74.4231830  59.7386254
  25.1244961  74.7741488  59.3513635  18.4420742  76.4699931  74.9527688
  19.1835426  77.0084975  74.6762511  17.7357727  77.0966220  75.1099240
  23.9176081  78.6129071  73.5499849  24.3259437  78.1711482  72.8054482
  23.1953343  78.0381699  73.8034042  19.7932858  78.9104670  64.5702223
  20.2571203  79.1892373  63.7806846  19.5289656  78.0088115  64.3875314
  16.6856939  78.4576152  67.5081986  17.2558296  78.8863420  66.8699471
  17.2765051  78.1758736  68.2066172  18.7301744  75.0327823  61.3791788
  19.4325787  75.4848866  61.8465715  18.3982372  74.3911641  62.0071681
  17.1782105  73.6239579  75.7542998  16.5480766  74.3055860  75.9878395
  17.0718193  73.5122661  74.8096136  12.4727078  73.2911375  66.6808922
  11.6826132  73.5468904  66.2049032  12.9638325  74.1059713  66.7860962
  14.4241823  73.6555954  63.6392399  13.6272986  73.7674649  64.1575894
  14.1967415  73.9942607  62.7733289  20.2547491  80.1800658  71.5874913
  20.3191923  80.6421065  72.4233085  19.5458415  79.5498023  71.7157223
  10.7564781  73.5441866  69.1123913  11.0072819  74.4288876  69.3781489
  11.2924329  73.3646467  68.3399005  19.9695508  81.8468765  61.4553894
  19.8341183  82.6920301  61.8838741  20.5105321  82.0488043  60.6919827
  16.4562848  67.9260345  78.1168249  16.0629794  67.3726544  78.7915893
  17.2728988  68.2370923  78.5074766  13.4224906  79.3644203  62.0281819
  13.9349426  80.1587453  62.1787383  14.0747619  78.6670494  61.9615420
  15.2319791  82.4809959  64.1104572  15.4086419  83.4027924  63.9225556
  16.0276624  82.1668379  64.5398952  19.3730809  69.3418224  75.7088505
  20.1140522  69.9425377  75.6292968  19.6048732  68.5995862  75.1506548
  14.5172147  74.5274591  73.9866735  14.4025662  73.6259849  74.2873834
  13.6616665  74.7738288  73.6351552  21.5963985  82.4692332  75.5854236
  21.1527839  81.6828710  75.2675140  22.2581198  82.6571482  74.9198126
  16.3551106  83.9988133  70.1114914  16.9058531  83.8705197  69.3391908
  15.5162582  84.2983022  69.7609807  23.6945223  82.7495132  73.6135637
  23.6763698  83.5704013  73.1215906  24.6165143  82.6249207  73.8385778
  20.1518277  80.2639261  74.4559145  20.6846614  79.5027549  74.2258453
  19.6232358  79.9712913  75.1983300  11.3873823  77.6932857  62.8041389
  12.2249045  78.1029866  62.5875097  11.5652090  76.7532300  62.7741583
  23.2838255  75.3607938  58.4925222  22.7684878  76.1312543  58.7313610
  23.0115563  74.6873074  59.1158284  28.2572529  78.1140293  60.4278396
  27.4801972  77.7751452  59.9833558  28.9364010  78.1192916  59.7533361
  23.0724558  73.2335030  60.3185003  22.7674694  73.5481179  61.1695146
  24.0255000  73.3116450  60.3612336  21.5170990  79.3925254  61.9677957
  20.9892351  78.6578013  61.6551195  21.0158493  80.1699930  61.7217926
  16.2489717  70.0544920  64.3284569  16.8233469  69.8320101  63.5957762
  16.8360700  70.1233614  65.0813170  16.5759305  72.0849381  58.3480454
  15.7396617  72.4224067  58.6689729  16.4364074  71.9498361  57.4107591
  19.6623590  77.2105464  54.9712930  18.7550652  76.9794717  55.1704079
  20.1594622  76.4143083  55.1586912  22.5691669  85.9202971  57.8909616
  21.8953368  86.2234668  58.4994574  22.9557491  86.7232051  57.5415074
  22.5685173  74.8159518  62.5109966  23.3156992  75.3280915  62.2017088
  22.8376763  74.4943571  63.3714360  20.8411823  77.3118059  59.4936920
  19.9323043  77.0277092  59.5909390  20.8706907  77.7317137  58.6340227
  24.5164030  82.7601145  64.1977906  24.8087004  83.3206202  63.4790272
  25.0262651  83.0529706  64.9531065  11.4099994  75.0323573  63.4752123
  11.2124394  74.4392934  62.7503189  10.8546658  74.7275783  64.1928061
  20.5387911  78.8526802  56.8324999  20.1007341  78.1362661  56.3730636
  21.2798352  79.0802917  56.2710090  17.3289077  73.5423739  63.3537095
  16.5156943  73.8417910  63.7602287  17.8248072  73.1479428  64.0711577
  19.4797655  83.5381496  65.2871359  19.4373834  83.7642342  64.3579891
  20.3960354  83.3044871  65.4357160  17.5963456  80.4144525  65.0833322
  18.3904055  79.9194845  64.8815897  16.8855148  79.8862388  64.7201028
  22.4158300  82.7962621  69.4345690  22.4695323  83.3653557  70.2023406
  21.5473082  82.9664506  69.0699727  13.9046219  74.5587607  61.1593075
  12.9743808  74.4972062  61.3763037  14.0003691  74.0363559  60.3629716
  13.8231769  71.0842420  63.7471316  14.0838586  71.9987753  63.6380477
  14.6448941  70.6166862  63.8967929  24.6061064  79.3890970  76.0086355
  24.4546570  79.1601521  75.0916439  24.5965743  80.3461571  76.0217700
  21.3746400  76.9622883  70.9932621  22.3038460  77.1134042  70.8201589
  20.9537430  77.0506903  70.1381268  20.1734732  80.9873547  68.7631159
  20.0345818  80.6192331  69.6357097  19.3849328  81.5021186  68.5915117
  20.7682884  86.0882643  60.1056696  20.9434640  85.6170687  60.9202318
  20.0815672  86.7148410  60.3337956  21.7239947  80.3655150  66.1519997
  21.3889780  80.3255920  67.0477647  21.2243893  79.6999866  65.6790407
  15.6984191  75.7722780  71.6772578  15.5603989  75.0403019  72.2784117
  16.6089115  75.6831680  71.3956766  24.6599139  77.7111184  56.4257057
  24.0428309  76.9858012  56.3290109  24.1915627  78.4720544  56.0824131
  26.3153270  82.4210092  74.0862837  26.2565817  81.7369312  73.4193420
  26.7172789  83.1629082  73.6343463  15.3343969  89.2372006  66.8796556
  15.5740568  89.8690530  67.5575574  14.4913166  88.8860046  67.1661915
  16.4497685  71.9296608  55.5478361  15.5727151  71.8085409  55.1840608
  16.9255438  71.1382687  55.2957249  26.3170678  80.3849676  72.3176817
  25.4297457  80.0475598  72.4403215  26.8869229  79.6532708  72.5545582
   7.9699825  76.7173768  65.6419868   8.6570865  76.4035498  65.0540883
   7.8147954  77.6215133  65.3687119  12.7734547  71.6063965  70.0704892
  12.6892736  70.9989634  69.3355302  11.9517253  72.0972983  70.0714388
  19.8471831  85.0451129  69.2838060  19.7742003  85.8506100  69.7957364
  19.4049224  85.2443094  68.4586081  19.6361611  84.2822899  62.7940881
  18.8529133  84.8244579  62.8879106  20.3354356  84.7996878  63.1935123
  22.3070515  84.9437963  71.4396218  23.0198487  85.5785427  71.3672120
  21.8160543  85.0401829  70.6236220  24.0288042  78.8489215  63.0113510
  23.0944320  78.9690678  62.8418214  24.2064710  77.9461682  62.7473520
  17.3582428  82.6932406  72.2601789  18.0591888  83.3268889  72.4131184
  16.8877543  83.0347138  71.4997429  25.4836824  81.0350356  60.5449696
  25.7596668  80.9206951  61.4543570  24.6141323  80.6367841  60.5061869
  22.1190888  85.2836707  64.1882510  22.3013283  84.4658363  64.6510262
  22.9423874  85.5004399  63.7507400  22.4533054  84.2104892  61.4497558
  22.9820820  83.6997346  60.8367721  22.7161273  83.8947422  62.3143091
  21.2071287  75.9896825  76.5720377  20.5311924  75.8890954  77.2422752
  22.0298921  75.8336038  77.0356374  12.9550146  82.2268761  69.1932892
  13.5403583  81.4812449  69.3260796  12.7574985  82.5372718  70.0769556
  15.8088801  85.2620009  64.2095334  15.1399177  85.7466136  63.7259374
  15.6701671  85.5089229  65.1238713   7.5467801  74.7974361  67.9137335
   7.5851901  74.2637952  68.7074453   7.0408094  74.2709567  67.2948312
  19.9494070  87.2963752  70.8077993  20.5012378  87.4595374  71.5727078
  20.2900264  87.8868190  70.1358018  14.9258563  69.6438902  71.4099877
  14.9899890  70.5053733  70.9977275  14.8625684  69.0312904  70.6772236
  14.4010836  71.7162034  75.0572912  15.0282875  71.3339112  75.6710436
  13.5438755  71.4976236  75.4228604  24.8004944  82.1225010  76.6626647
  25.3444848  82.7354968  76.1681602  24.2191789  82.6804588  77.1793660
  11.1776379  73.5238464  60.9891266  11.4729820  72.6149142  60.9358320
  10.2764414  73.5026203  60.6672269  23.0862457  85.2445728  67.7941675
  22.9613597  84.4435467  67.2852620  23.7441548  85.7391921  67.3055645
  14.7070626  71.5994460  66.9718815  13.9857211  72.2130428  66.8326288
  15.4963881  72.1352225  66.8935461  25.1497366  83.0454748  69.4221225
  24.2027701  82.9260099  69.3499552  25.4980139  82.1577246  69.5047486
  12.9064220  71.2052561  61.1130592  12.5776926  70.3249940  60.9305698
  13.2603591  71.1500230  62.0006981  22.1543799  82.8407464  65.6225577
  22.0068761  81.9124171  65.8033147  22.9797293  82.8627555  65.1382652
  16.0206043  71.4925531  61.4806069  16.3602116  72.0211452  60.7584678
  16.4678164  71.8305937  62.2564636  25.7577921  83.6636023  66.7090450
  26.6824468  83.4578884  66.5714901  25.5893224  83.4152424  67.6179791
  16.8904535  73.6531015  67.1928439  16.7449115  73.9671318  68.0852721
  16.4129738  74.2715915  66.6399338  25.5473237  84.1821690  62.0652541
  25.7210115  83.6168113  61.3126394  26.0402128  84.9822585  61.8832031
  11.3650197  76.1936359  70.1316100  10.8203665  76.9696167  70.2636375
  12.2429547  76.5407164  69.9735222  26.5348410  83.4988455  59.1649440
  27.2299314  84.1195147  59.3836754  26.8771560  82.6483806  59.4401818
  12.1516219  75.3206255  73.0246257  11.4097955  75.4688891  73.6110887
  11.8308963  75.5814521  72.1613006  28.4339833  80.9488160  60.6936770
  28.9591157  81.2875433  59.9686090  28.3462185  80.0135175  60.5099905
  20.0959881  84.8622234  72.8226647  20.4047008  84.6171380  73.6949347
  20.8935363  85.0668872  72.3345517  20.1180493  87.0160143  65.0532024
  19.6785484  86.5236522  65.7464880  20.8688610  86.4733111  64.8124099
  12.5972832  83.2071684  65.0556652  13.4230852  82.9075456  64.6755295
  12.2466884  82.4379307  65.5046440  17.5654366  82.5598152  67.1254325
  16.9434375  81.8968857  66.8256553  18.2359232  82.5859284  66.4427973
  10.7981437  81.1258011  66.0145585   9.9613346  80.6980185  65.8329587
  10.7705083  81.3190454  66.9516376  17.6378893  71.0379940  76.7186831
  17.6867049  71.9142063  76.3364601  18.1801407  70.4957333  76.1458475
  28.1233739  81.5821064  75.9987968  27.3329282  81.5645203  75.4592468
  27.8867093  82.1209357  76.7537005  28.2431614  78.4313530  73.3120697
  28.2929619  78.2663537  74.2536220  28.1345537  77.5640789  72.9218578
  17.1267872  81.1102076  60.6012786  17.2755993  81.7937540  59.9479459
  17.9334316  81.0907166  61.1162242  29.7449811  80.8510472  73.5562718
  29.4534619  81.2140452  74.3926179  29.1321942  80.1377480  73.3776051
  14.8820505  77.1367253  61.6073855  14.6366547  76.2329583  61.8054065
  15.0516420  77.1384404  60.6653333  14.1516153  72.8695611  59.1060016
  13.4585398  72.9439966  58.4500052  13.9067905  72.1055955  59.6281533
  20.6263278  83.6050206  58.0724533  20.0537245  84.2240393  57.6195005
  21.1996072  84.1549568  58.6064455  23.8460538  83.8887356  59.2033116
  24.7791211  83.8232918  59.4065991  23.7583751  84.7243623  58.7447648
  26.4748554  83.2053227  56.1637063  26.3962186  82.8713090  57.0572821
  27.2958221  83.6974995  56.1628535  21.0110077  74.9411019  55.4140586
  21.9569181  74.8117227  55.4829004  20.6324321  74.2025681  55.8910014
  20.8948769  78.9928765  76.8741243  21.8151779  79.1707364  77.0681289
  20.8598352  78.0484810  76.7220942  19.1952994  72.8660995  55.3495471
  18.2884449  72.5694108  55.4258185  19.4728975  72.5690813  54.4829757
  10.1130934  74.1867359  65.7994517   9.7933718  73.3332667  65.5068891
   9.5664362  74.4015937  66.5552485  13.8910842  76.9029800  69.5164024
  14.1096851  77.8346908  69.5352058  14.3036615  76.5437774  70.3018828
  18.7638707  72.4763005  78.9066773  18.6635434  73.4257362  78.8378864
  18.5460249  72.1481244  78.0342843  17.9651778  69.7247931  55.4907450
  18.8270942  70.0502829  55.7503268  18.1502122  68.9379426  54.9780516
   9.9819194  77.8070270  67.7687639   9.2882665  77.3924223  67.2557593
  10.7292185  77.8490807  67.1721058  18.6269977  75.9060144  77.7231834
  18.1437059  76.7060504  77.9295724  18.7130916  75.9168089  76.7699278
  11.8955937  77.7388524  65.6453654  11.8726625  77.8376211  64.6935537
  12.2056573  78.5853675  65.9670820  14.5543314  79.7964679  69.7600268
  15.5086568  79.7648621  69.6930200  14.3555838  79.3355303  70.5750494
  15.1442697  78.3665795  72.3271066  15.9635586  78.8609874  72.3505903
  15.4179504  77.4497763  72.2988633  12.9093543  85.3384299  66.7770466
  12.7748011  84.5784699  66.2108464  12.4925606  86.0625198  66.3099255
  24.0452506  80.5221222  55.7847041  24.7488356  80.7271225  56.4004697
  23.3215155  81.0897984  56.0496125  24.8750317  76.2731083  61.9049312
  24.8185518  76.7299635  61.0656944  25.4278659  75.5121768  61.7272154
  16.0662669  86.2353616  66.9888909  15.9495053  87.1799048  66.8867599
  15.2455115  85.9327177  67.3774708  25.9539204  80.9603751  57.8345501
  26.7884808  80.5284950  57.6522976  25.7923547  80.7885765  58.7622396
  25.6085096  77.4635865  59.2001841  25.5533900  77.2980136  58.2590285
  24.9831151  78.1711897  59.3564030  10.3977611  72.7003929  73.0263263
  11.0436474  72.1902883  73.5150488  10.1894762  73.4372611  73.6006688
  22.9231003  79.7684776  78.5255404  23.7922163  79.9425429  78.1642038
  22.4437755  80.5879193  78.4031133  17.0917183  86.8881877  70.2044837
  17.9944430  86.9205488  70.5211332  16.8654553  85.9582328  70.2191173
  18.8470785  85.6412864  66.8654916  17.8966416  85.6414726  66.7519288
  19.1503271  84.8945599  66.3490950  14.7375102  69.8471546  77.1238277
  15.6006563  69.4908351  77.3341602  14.1640512  69.5085441  77.8113681
  34.5823479  91.4773402  67.9300678  35.2201889  91.3580150  67.2264018
  34.4644322  92.4254246  67.9888630  31.3913185  91.4300830  67.8662203
  31.0531697  91.3141895  66.9782738  32.2602953  91.0291996  67.8463209
  27.2500001  93.2836307  63.8559094  26.6864866  93.1926244  63.0875382
  27.1352396  92.4636211  64.3361586  31.8732968  92.5835682  73.8248408
  31.8621609  92.1888480  72.9528912  32.0353608  91.8501755  74.4182180
  24.7964433  94.7787498  66.6943314  25.5885725  94.4378323  66.2789614
  25.0361083  94.8882474  67.6145468  32.8299559  96.9507275  59.1673559
  32.1787539  97.5361355  58.7807573  33.6243922  97.4813470  59.2268596
  26.7555187  94.0396412  59.5660693  27.5286063  93.4925399  59.4273569
  27.1080585  94.9040661  59.7775155  28.5940229  95.3672794  72.7727592
  28.3030095  96.2718425  72.6574259  29.2297214  95.4089322  73.4871662
  29.5196436  92.7449643  69.3628952  30.1160008  92.5205665  68.6485915
  29.5771408  92.0034388  69.9654400  29.0921464  90.1989078  57.1979143
  29.3446985  89.6770599  56.4362606  28.1546024  90.0355223  57.3005827
  34.1364747  89.2024856  65.0053886  34.9227836  88.7844279  64.6544303
  34.4003452  90.1070948  65.1735535  34.3074825  94.6397707  59.7042543
  33.6720658  94.7132333  60.4163448  33.9772231  95.2291305  59.0261622
  39.5373174  89.1400089  65.9086865  40.2698346  88.5699306  66.1424694
  38.7812530  88.7521690  66.3493370  28.8117753  92.1017184  59.4003518
  28.6954011  91.4262087  60.0684602  28.9220013  91.6149558  58.5835671
  31.1549294  91.5627331  63.1050207  30.7907501  91.0357952  63.8163129
  32.0116410  91.1725800  62.9316693  37.0598595  82.8521664  70.3681473
  36.7281920  83.7217074  70.1442688  36.4644208  82.5357948  71.0475504
  30.7954781  86.5917231  58.1011556  30.9629183  87.4597467  58.4682027
  30.6051950  86.7544512  57.1772845  33.5530114  95.0534210  69.7677386
  33.2530837  95.9559248  69.6593193  33.2081174  94.7866393  70.6198539
  27.0042596  91.5048006  65.8014091  26.0793092  91.3724220  66.0091782
  27.2527009  92.2842226  66.2984033  36.9527258  87.5716750  67.4474823
  36.0444135  87.5032158  67.1533584  36.9014854  88.0488695  68.2756649
  30.7744002  89.0474888  59.0858223  30.6543627  89.4931939  59.9243703
  30.0796590  89.3960206  58.5271761  24.3651407  91.1481280  66.6357880
  24.4943788  91.4015759  67.5497291  23.6848858  91.7408988  66.3162535
  31.0268124  88.9906395  75.3909721  30.2501458  89.5500315  75.3812585
  31.6658687  89.4763178  75.9124591  38.8188904  85.7733188  69.2252697
  38.1763285  86.0665721  68.5792492  38.3143833  85.6586108  70.0305894
  36.4729068  89.5196361  59.9138557  37.3846924  89.7523748  59.7386254
  35.9638715  90.1033406  59.3513635  29.2814496  91.7991849  74.9527688
  30.0229181  92.3376893  74.6762511  28.5751482  92.4258137  75.1099240
  34.7569836  93.9420989  73.5499849  35.1653192  93.5003400  72.8054482
  34.0347097  93.3673617  73.8034042  31.1100906  88.8793596  70.9233406
  31.9562101  89.3033009  71.0668055  31.0499543  88.2227220  71.6171969
  35.0798650  94.5022180  67.3052138  34.4507513  94.6667894  66.6028206
  34.6924312  94.9163789  68.0763102  38.9587882  95.4376618  64.6596502
  38.2738920  95.8175519  64.1093535  39.0431732  96.0471944  65.3928450
  34.2600351  86.5397964  72.5814580  34.0161283  87.2940025  72.0448855
  34.5360282  86.9183312  73.4161827  36.2138814  93.0836577  71.2591845
  36.4255709  93.7268337  70.5826226  36.1668562  92.2498893  70.7913775
  33.8165043  85.6954397  68.1628418  32.9549522  85.9935651  68.4545155
  33.8427478  85.9124796  67.2309450  30.6326612  94.2396588  64.5702223
  31.0964958  94.5184291  63.7806846  30.3683410  93.3380032  64.3875314
  27.5250693  93.7868069  67.5081986  28.0952050  94.2155338  66.8699471
  28.1158805  93.5050654  68.2066172  29.5695498  90.3619740  61.3791788
  30.2719542  90.8140784  61.8465715  29.2376127  89.7203559  62.0071681
  28.0175860  88.9531497  75.7542998  27.3874520  89.6347778  75.9878395
  27.9111948  88.8414578  74.8096136  23.3120832  88.6203293  66.6808922
  22.5219886  88.8760821  66.2049032  23.8032080  89.4351631  66.7860962
  37.3284642  95.9608532  69.4314203  38.1502086  95.5588719  69.1496884
  37.3247045  95.8576766  70.3830319  25.2635578  88.9847872  63.6392399
  24.4666741  89.0966566  64.1575894  25.0361170  89.3234524  62.7733289
  31.0941245  95.5092575  71.5874913  31.1585678  95.9712983  72.4233085
  30.3852169  94.8789940  71.7157223  21.5958535  88.8733783  69.1123913
  21.8466574  89.7580793  69.3781489  22.1318084  88.6938385  68.3399005
  45.4190635  92.3047281  65.7799174  44.6654343  91.7354679  65.6243179
  45.5538176  92.2709945  66.7269809  30.8089263  97.1760683  61.4553894
  30.6734938  98.0212219  61.8838741  31.3499075  97.3779960  60.6919827
  27.2956603  83.2552263  78.1168249  26.9023548  82.7018461  78.7915893
  28.1122743  83.5662841  78.5074766  24.2618660  94.6936121  62.0281819
  24.7743181  95.4879371  62.1787383  24.9141373  93.9962411  61.9615420
  26.0713545  97.8101877  64.1104572  26.2480173  98.7319842  63.9225556
  26.8670379  97.4960296  64.5398952  30.2124564  84.6710142  75.7088505
  30.9534277  85.2717295  75.6292968  30.4442486  83.9287780  75.1506548
  25.3565902  89.8566509  73.9866735  25.2419417  88.9551766  74.2873834
  24.5010419  90.1030206  73.6351552  32.4357739  97.7984249  75.5854236
  31.9921594  97.0120628  75.2675140  33.0974953  97.9863400  74.9198126
  27.1944861  99.3280051  70.1114914  27.7452286  99.1997114  69.3391908
  26.3556336  99.6274940  69.7609807  34.5338977  98.0787049  73.6135637
  34.5157453  98.8995930  73.1215906  35.4558897  97.9541124  73.8385778
  30.9912032  95.5931179  74.4559145  31.5240368  94.8319467  74.2258453
  30.4626113  95.3004831  75.1983300  22.2267577  93.0224775  62.8041389
  23.0642799  93.4321784  62.5875097  22.4045845  92.0824217  62.7741583
  34.1232009  90.6899856  58.4925222  33.6078633  91.4604460  58.7313610
  33.8509318  90.0164992  59.1158284  31.7079120  85.5349557  63.5510460
  30.8520717  85.1456407  63.3716099  32.1206072  85.6141517  62.6910246
  33.2378267  83.0695900  67.9502020  32.7343063  83.0326035  67.1369826
  33.5308874  83.9788643  68.0098677  39.0966283  93.4432210  60.4278396
  38.3195726  93.1043370  59.9833558  39.7757764  93.4484834  59.7533361
  33.9118312  88.5626948  60.3185003  33.6068448  88.8773097  61.1695146
  34.8648755  88.6408368  60.3612336  32.3564744  94.7217171  61.9677957
  31.8286106  93.9869931  61.6551195  31.8552247  95.4991848  61.7217926
  37.3357590  92.9166192  67.0845004  36.6781265  93.6065453  67.1725132
  38.1397990  93.3062624  67.4278990  27.0883472  85.3836838  64.3284569
  27.6627224  85.1612019  63.5957762  27.6754454  85.4525532  65.0813170
  36.1463049  91.2710564  65.1348945  36.6594931  91.9040556  65.6370655
  36.7964273  90.6711760  64.7692305  27.4153059  87.4141299  58.3480454
  26.5790371  87.7515985  58.6689729  27.2757829  87.2790278  57.4107591
  30.5017344  92.5397381  54.9712930  29.5944406  92.3086635  55.1704079
  30.9988376  91.7435001  55.1586912  33.4085423 101.2494889  57.8909616
  32.7347122 101.5526585  58.4994574  33.7951245 102.0523969  57.5415074
  32.6243880  88.7460020  67.3807286  31.7066441  88.9674967  67.2228974
  33.0404024  88.8206330  66.5218993  33.4078928  90.1451436  62.5109966
  34.1550747  90.6572833  62.2017088  33.6770517  89.8235488  63.3714360
  31.6805578  92.6409976  59.4936920  30.7716797  92.3569009  59.5909390
  31.7100662  93.0609055  58.6340227  36.9124845  96.2516566  63.2628088
  36.4587172  95.4107476  63.3193278  36.2818812  96.8877964  63.6002868
  35.8557765  87.1808552  64.4928755  35.1180522  86.6685938  64.8238998
  36.1084538  86.7408934  63.6812032  35.3557785  98.0893063  64.1977906
  35.6480759  98.6498120  63.4790272  35.8656405  98.3821624  64.9531065
  22.2493748  90.3615490  63.4752123  22.0518148  89.7684851  62.7503189
  21.6940412  90.0567701  64.1928061  30.2290472  90.2538597  65.5946716
  30.2839082  89.3012433  65.5189192  29.4181674  90.4098036  66.0788014
  31.3781666  94.1818720  56.8324999  30.9401096  93.4654579  56.3730636
  32.1192107  94.4094835  56.2710090  28.1682832  88.8715657  63.3537095
  27.3550697  89.1709827  63.7602287  28.6641826  88.4771345  64.0711577
  30.3191410  98.8673414  65.2871359  30.2767589  99.0934260  64.3579891
  31.2354109  98.6336788  65.4357160  33.7657044  89.3357481  72.1851989
  34.1206431  89.5628954  73.0446454  34.4129175  89.6675858  71.5629244
  39.4954780  92.4575917  62.8901318  39.3572679  92.6477513  61.9622507
  39.1390999  93.2195300  63.3469369  27.6596907  86.4434012  68.9698330
  28.2996286  86.3022771  68.2721293  26.8274437  86.1568526  68.5936932
  39.5224160  94.5252444  67.9012589  39.9560667  94.4327733  68.7495643
  40.2355741  94.5009945  67.2632605  28.4357211  95.7436443  65.0833322
  29.2297809  95.2486763  64.8815897  27.7248903  95.2154306  64.7201028
  33.2552055  98.1254538  69.4345690  33.3089077  98.6945475  70.2023406
  32.3866836  98.2956423  69.0699727  24.7439974  89.8879524  61.1593075
  23.8137562  89.8263980  61.3763037  24.8397446  89.3655477  60.3629716
  24.6625523  86.4134337  63.7471316  24.9232340  87.3279670  63.6380477
  25.4842695  85.9458780  63.8967929  26.1350448  87.8272094  70.9170141
  26.8073502  87.6189457  70.2682790  25.3080235  87.6294180  70.4775373
  40.3839710  94.5676145  70.4345474  40.5775600  95.4721955  70.6804749
  40.2840328  94.1083564  71.2684059  32.0376020  84.4534035  72.9335802
  31.3903935  85.1523985  72.8400278  32.8077036  84.8870179  73.3012050
  35.4454818  94.7182887  76.0086355  35.2940325  94.4893439  75.0916439
  35.4359498  95.6753489  76.0217700  31.0128487  96.3165465  68.7631159
  30.8739572  95.9484249  69.6357097  30.2243083  96.8313104  68.5915117
  32.5633702  95.6947067  66.1519997  32.2283534  95.6547837  67.0477647
  32.0637647  95.0291783  65.6790407  26.5377946  91.1014697  71.6772578
  26.3997744  90.3694936  72.2784117  27.4482869  91.0123597  71.3956766
  35.4992893  93.0403102  56.4257057  34.8822064  92.3149930  56.3290109
  35.0309382  93.8012462  56.0824131  29.1660246  90.8134657  71.1656258
  29.8759865  90.1727849  71.1242876  29.1229554  91.0647552  72.0882438
  37.1547025  97.7502010  74.0862837  37.0959571  97.0661230  73.4193420
  37.5566543  98.4921000  73.6343463  27.8789180  87.7999875  72.9851897
  27.3426537  87.3490613  73.6373494  27.2905889  87.9345783  72.2422362
  27.2891439  87.2588526  55.5478361  26.4120906  87.1377327  55.1840608
  27.7649192  86.4674604  55.2957249  37.1564432  95.7141594  72.3176817
  36.2691211  95.3767516  72.4403215  37.7262983  94.9824625  72.5545582
  18.8093579  92.0465686  65.6419868  19.4964619  91.7327416  65.0540883
  18.6541708  92.9507050  65.3687119  23.6128301  86.9355882  70.0704892
  23.5286490  86.3281552  69.3355302  22.7911008  87.4264901  70.0714388
  30.6865586 100.3743046  69.2838060  30.6135757 101.1798018  69.7957364
  30.2442979 100.5735012  68.4586081  30.4755365  99.6114816  62.7940881
  29.6922887 100.1536497  62.8879106  31.1748110 100.1288796  63.1935123
  33.7852015  85.4209446  65.4375087  34.2820715  84.6679408  65.1176157
  33.0138997  85.4573762  64.8718296  41.6381773  91.1249811  67.0793378
  41.6271649  92.0074527  66.7087311  40.7699152  90.7721362  66.8847915
  33.1464269 100.2729880  71.4396218  33.8592241 100.9077345  71.3672120
  32.6554298 100.3693746  70.6236220  34.8681796  94.1781133  63.0113510
  33.9338075  94.2982595  62.8418214  35.0458465  93.2753600  62.7473520
  30.3686984  87.5626829  65.1646771  29.9984772  87.0097869  65.8527677
  30.8646077  86.9584962  64.6121771  38.2554347  90.0198452  63.5463544
  38.7214800  90.8526444  63.4723847  38.7061848  89.5543434  64.2508803
  28.1976183  98.0224324  72.2601789  28.8985642  98.6560807  72.4131184
  27.7271298  98.3639055  71.4997429  36.3230579  96.3642274  60.5449696
  36.5990422  96.2498868  61.4543570  35.4535077  95.9659758  60.5061869
  36.2271010  82.3879039  67.5854446  35.3134090  82.6183266  67.7536653
  36.6564112  82.4717483  68.4368478  35.9977469  90.5768931  70.0854340
  35.3448919  90.8244839  69.4306792  36.3757849  89.7633069  69.7516817
  32.9584643 100.6128624  64.1882510  33.1407037  99.7950280  64.6510262
  33.7817629 100.8296317  63.7507400  33.2926808  99.5396810  61.4497558
  33.8214574  99.0289264  60.8367721  33.5555028  99.2239340  62.3143091
  32.0465042  91.3188742  76.5720377  31.3705679  91.2182872  77.2422752
  32.8692676  91.1627956  77.0356374  23.7943901  97.5560679  69.1932892
  24.3797338  96.8104367  69.3260796  23.5968739  97.8664636  70.0769556
  18.3861555  90.1266279  67.9137335  18.4245655  89.5929870  68.7074453
  17.8801848  89.6001485  67.2948312  25.7652318  84.9730820  71.4099877
  25.8293644  85.8345650  70.9977275  25.7019438  84.3604821  70.6772236
  25.2404590  87.0453952  75.0572912  25.8676629  86.6631029  75.6710436
  24.3832509  86.8268154  75.4228604  35.6398699  97.4516927  76.6626647
  36.1838603  98.0646886  76.1681602  35.0585544  98.0096506  77.1793660
  22.0170133  88.8530381  60.9891266  22.3123574  87.9441060  60.9358320
  21.1158169  88.8318121  60.6672269  33.9256212 100.5737645  67.7941675
  33.8007351  99.7727385  67.2852620  34.5835303 101.0683839  67.3055645
  25.5464380  86.9286378  66.9718815  24.8250966  87.5422346  66.8326288
  26.3357636  87.4644143  66.8935461  35.9891120  98.3746665  69.4221225
  35.0421456  98.2552017  69.3499552  36.3373893  97.4869163  69.5047486
  28.3490694  84.2640804  73.2459467  28.8725095  84.5103101  74.0085776
  28.1303027  85.0960839  72.8262604  23.7457975  86.5344479  61.1130592
  23.4170681  85.6541858  60.9305698  24.0997345  86.4792148  62.0006981
  32.9937554  98.1699382  65.6225577  32.8462516  97.2416089  65.8033147
  33.8191047  98.1919472  65.1382652  26.8599798  86.8217449  61.4806069
  27.1995870  87.3503370  60.7584678  27.3071918  87.1597855  62.2564636
  36.5971675  98.9927940  66.7090450  37.5218223  98.7870802  66.5714901
  36.4286979  98.7444341  67.6179791  29.5543239  85.2054499  70.9309137
  29.2140059  84.4062312  71.3329817  28.8482245  85.5056210  70.3585971
  28.8467945  85.3192070  59.6799362  29.5676307  85.6973323  59.1763079
  28.2233249  86.0380947  59.7834340  32.9899068  86.0237219  60.6157694
  33.2062682  86.9061857  60.3146523  32.5093135  85.6323433  59.8863336
  27.7298289  88.9822932  67.1928439  27.5842870  89.2963236  68.0852721
  27.2523493  89.6007833  66.6399338  29.5894672  85.9725480  67.2409329
  29.5756241  85.0766574  66.9041627  30.3067100  85.9796144  67.8747615
  31.4420803  86.4062821  69.2862456  31.1838581  87.3279891  69.2846786
  30.9105843  86.0093255  69.9762920  36.3866992  99.5113608  62.0652541
  36.5603869  98.9460030  61.3126394  36.8795883 100.3114503  61.8832031
  22.2043951  91.5228277  70.1316100  21.6597419  92.2988085  70.2636375
  23.0823301  91.8699081  69.9735222  28.9931568  84.8539861  62.5096899
  29.1147479  83.9256507  62.7087786  28.7033610  84.8678547  61.5975214
  42.2406383  92.2750031  63.6842841  42.6837529  91.5257356  63.2861964
  41.3632893  92.2660167  63.3016573  37.3742164  98.8280372  59.1649440
  38.0693069  99.4487065  59.3836754  37.7165314  97.9775723  59.4401818
  22.9909973  90.6498173  73.0246257  22.2491709  90.7980808  73.6110887
  22.6702718  90.9106439  72.1613006  39.2733587  96.2780078  60.6936770
  39.7984911  96.6167350  59.9686090  39.1855940  95.3427093  60.5099905
  30.9353636 100.1914151  72.8226647  31.2440762  99.9463298  73.6949347
  31.7329118 100.3960790  72.3345517  23.4366587  98.5363602  65.0556652
  24.2624607  98.2367374  64.6755295  23.0860639  97.7671224  65.5046440
  28.4048120  97.8890070  67.1254325  27.7828129  97.2260775  66.8256553
  29.0752987  97.9151202  66.4427973  21.6375192  96.4549928  66.0145585
  20.8007100  96.0272103  65.8329587  21.6098837  96.6482372  66.9516376
  28.4772648  86.3671858  76.7186831  28.5260803  87.2433981  76.3364601
  29.0195162  85.8249251  76.1458475  38.9627493  96.9112981  75.9987968
  38.1723037  96.8937120  75.4592468  38.7260848  97.4501275  76.7537005
  39.0825368  93.7605448  73.3120697  39.1323373  93.5955455  74.2536220
  38.9739292  92.8932707  72.9218578  27.9661627  96.4393993  60.6012786
  28.1149747  97.1229458  59.9479459  28.7728070  96.4199083  61.1162242
  36.3729131  89.7436376  74.6280004  37.2738993  89.6042841  74.3364001
  36.4477105  89.9090831  75.5678181  30.7071936  87.1203231  73.4733190
  29.8375245  87.4136797  73.2015779  30.9431416  87.7043676  74.1940454
  40.5843565  96.1802389  73.5562718  40.2928373  96.5432370  74.3926179
  39.9715696  95.4669398  73.3776051  41.7839247  93.7455269  66.0765289
  42.6186139  94.1845073  66.2402849  41.9198376  93.2693922  65.2573534
  38.8330753  91.3035004  72.0242776  39.3084875  91.4962650  71.2161628
  37.9096319  91.3594190  71.7786160  25.7214260  92.4659171  61.6073855
  25.4760302  91.5621501  61.8054065  25.8910175  92.4676322  60.6653333
  33.4110970  83.3382847  70.9898610  33.9292914  84.0743874  70.6645099
  33.0566103  83.6446841  71.8245369  24.9909907  88.1987529  59.1060016
  24.2979152  88.2731884  58.4500052  24.7461659  87.4347872  59.6281533
  31.4657033  98.9342124  58.0724533  30.8931000  99.5532311  57.6195005
  32.0389826  99.4841486  58.6064455  37.5332422  88.1800764  70.2571082
  38.4849845  88.2798862  70.2783306  37.3635873  87.3879033  70.7669166
  35.5546802  85.2656347  70.4430483  34.9596734  85.5461360  69.7476972
  35.2696499  85.7550248  71.2147224  34.6854292  99.2179274  59.2033116
  35.6184965  99.1524836  59.4065991  34.5977505 100.0535541  58.7447648
  37.3142309  98.5345144  56.1637063  37.2355940  98.2005008  57.0572821
  38.1351976  99.0266912  56.1628535  40.0120500  91.4006884  69.3713382
  39.9796820  90.4622884  69.5573066  40.6221124  91.4790920  68.6379207
  31.8503831  90.2702937  55.4140586  32.7962936  90.1409145  55.4829004
  31.4718076  89.5317599  55.8910014  40.1614989  88.1917927  69.4171665
  39.6454037  87.4076384  69.2301594  41.0454937  87.8636644  69.5818184
  45.8297050  92.4622890  68.5119419  46.5600438  92.2008179  69.0727122
  45.2203995  91.7251612  68.5521486  43.9112347  90.6030753  69.1093870
  43.1845511  90.4686718  68.5010361  43.4959634  90.9107582  69.9150588
  31.7342524  94.3220683  76.8741243  32.6545533  94.4999282  77.0681289
  31.6992107  93.3776728  76.7220942  30.0346748  88.1952913  55.3495471
  29.1278204  87.8986026  55.4258185  30.3122729  87.8982731  54.4829757
  20.9524689  89.5159276  65.7994517  20.6327473  88.6624585  65.5068891
  20.4058117  89.7307855  66.5552485  24.7304596  92.2321717  69.5164024
  24.9490606  93.1638825  69.5352058  25.1430370  91.8729692  70.3018828
  31.6508814  82.7389803  61.5039712  30.8409542  82.3936888  61.8794958
  32.3393231  82.4297346  62.0927324  29.6032461  87.8054923  78.9066773
  29.5029188  88.7549280  78.8378864  29.3854003  87.4773162  78.0342843
  28.8045533  85.0539848  55.4907450  29.6664697  85.3794747  55.7503268
  28.9895877  84.2671344  54.9780516  20.8212949  93.1362188  67.7687639
  20.1276420  92.7216141  67.2557593  21.5685940  93.1782724  67.1721058
  29.4663731  91.2352062  77.7231834  28.9830813  92.0352422  77.9295724
  29.5524671  91.2460007  76.7699278  22.7349691  93.0680442  65.6453654
  22.7120379  93.1668129  64.6935537  23.0450328  93.9145592  65.9670820
  25.3937069  95.1256597  69.7600268  26.3480322  95.0940539  69.6930200
  25.1949593  94.6647220  70.5750494  25.9836451  93.6957713  72.3271066
  26.8029340  94.1901791  72.3505903  26.2573259  92.7789681  72.2988633
  35.7403047  86.0868465  61.6899021  34.8528902  86.3718116  61.4719216
  36.1557036  85.9262228  60.8426298  41.5290142  86.8242605  66.4627301
  42.1234633  86.5838341  65.7520610  41.6016726  86.1049736  67.0900838
  34.8846261  95.8513140  55.7847041  35.5882111  96.0563142  56.4004697
  34.1608910  96.4189902  56.0496125  35.7144071  91.6023001  61.9049312
  35.6579272  92.0591552  61.0656944  36.2672413  90.8413686  61.7272154
  43.8361215  90.1308806  65.2370722  43.2760773  90.2001995  66.0102285
  43.2304718  89.9549791  64.5170219  36.7932958  96.2895669  57.8345501
  37.6278562  95.8576867  57.6522976  36.6317301  96.1177683  58.7622396
  36.4478850  92.7927782  59.2001841  36.3927654  92.6272054  58.2590285
  35.8224906  93.5003815  59.3564030  21.2371365  88.0295847  73.0263263
  21.8830229  87.5194801  73.5150488  21.0288516  88.7664528  73.6006688
  33.7624758  95.0976694  78.5255404  34.6315917  95.2717346  78.1642038
  33.2831509  95.9171111  78.4031133  29.7574976  82.2935891  58.7787159
  29.7453646  83.2377731  58.9355430  30.6498398  82.1106037  58.4846620
  25.5768856  85.1763464  77.1238277  26.4400318  84.8200269  77.3341602
  25.0034267  84.8377359  77.8113681  44.9758502 104.5316774  65.0053886
  45.7621591 104.1136197  64.6544303  45.2397206 105.4362866  65.1735535
  50.3766929 104.4692007  65.9086865  51.1092101 103.8991224  66.1424694
  49.6206285 104.0813608  66.3493370  47.8992349  98.1813581  70.3681473
  47.5675674  99.0508992  70.1442688  47.3037963  97.8649865  71.0475504
  41.6348536 101.9209148  58.1011556  41.8022938 102.7889385  58.4682027
  41.4445705 102.0836430  57.1772845  47.7921013 102.9008667  67.4474823
  46.8837890 102.8324076  67.1533584  47.7408608 103.3780612  68.2756649
  41.6137756 104.3766806  59.0858223  41.4937382 104.8223857  59.9243703
  40.9190345 104.7252123  58.5271761  41.8661878 104.3198313  75.3909721
  41.0895212 104.8792233  75.3812585  42.5052441 104.8055096  75.9124591
  49.6582659 101.1025106  69.2252697  49.0157039 101.3957639  68.5792492
  49.1537587 100.9878026  70.0305894  47.3122823 104.8488279  59.9138557
  48.2240679 105.0815666  59.7386254  46.8032470 105.4325323  59.3513635
  41.9494660 104.2085514  70.9233406  42.7955856 104.6324927  71.0668055
  41.8893298 103.5519138  71.6171969  45.0994106 101.8689882  72.5814580
  44.8555038 102.6231942  72.0448855  45.3754036 102.2475230  73.4161827
  44.6558797 101.0246315  68.1628418  43.7943276 101.3227569  68.4545155
  44.6821232 101.2416714  67.2309450  56.2584389 107.6339198  65.7799174
  55.5048098 107.0646596  65.6243179  56.3931931 107.6001863  66.7269809
  38.1350357  98.5844180  78.1168249  37.7417303  98.0310379  78.7915893
  38.9516497  98.8954759  78.5074766  41.0518318 100.0002059  75.7088505
  41.7928031 100.6009213  75.6292968  41.2836241  99.2579697  75.1506548
  44.9975481  96.0283162  69.9852787  44.6539750  96.9184804  69.9091898
  45.3654444  95.8384820  69.1222372  42.5472875 100.8641474  63.5510460
  41.6914471 100.4748325  63.3716099  42.9599827 100.9433435  62.6910246
  44.0772021  98.3987818  67.9502020  43.5736817  98.3617953  67.1369826
  44.3702628  99.3080560  68.0098677  40.3214907  98.4826547  66.9568202
  41.1867904  98.2869356  66.5974091  40.3892416  98.2536899  67.8837559
  44.7512067 103.8918866  60.3185003  44.4462202 104.2065015  61.1695146
  45.7042509 103.9700285  60.3612336  37.9277226 100.7128755  64.3284569
  38.5020978 100.4903937  63.5957762  38.5148209 100.7817450  65.0813170
  46.9856804 106.6002482  65.1348945  47.4988685 107.2332474  65.6370655
  47.6358027 106.0003678  64.7692305  38.2546813 102.7433216  58.3480454
  37.4184126 103.0807903  58.6689729  38.1151583 102.6082196  57.4107591
  40.2299894  97.5870004  63.0559638  39.5764306  97.2719021  62.4316253
  40.1880368  96.9645745  63.7819461  43.4637634 104.0751938  67.3807286
  42.5460196 104.2966885  67.2228974  43.8797778 104.1498248  66.5218993
  44.2472682 105.4743353  62.5109966  44.9944501 105.9864751  62.2017088
  44.5164272 105.1527406  63.3714360  46.6951519 102.5100470  64.4928755
  45.9574276 101.9977856  64.8238998  46.9478293 102.0700851  63.6812032
  46.7963147  95.2876722  65.0870525  47.1022023  94.4274085  64.7996440
  47.5215751  95.8794342  64.8869519  44.6050798 104.6649399  72.1851989
  44.9600186 104.8920872  73.0446454  45.2522929 104.9967776  71.5629244
  38.4990661 101.7725930  68.9698330  39.1390040 101.6314689  68.2721293
  37.6668192 101.4860443  68.5936932  35.5019278 101.7426255  63.7471316
  35.7626095 102.6571588  63.6380477  36.3236450 101.2750697  63.8967929
  36.9744203 103.1564012  70.9170141  37.6467256 102.9481374  70.2682790
  36.1473989 102.9586098  70.4775373  42.8769775  99.7825953  72.9335802
  42.2297690 100.4815903  72.8400278  43.6470790 100.2162097  73.3012050
  38.7182935 103.1291792  72.9851897  38.1820292 102.6782531  73.6373494
  38.1299643 103.2637701  72.2422362  38.1285194 102.5880444  55.5478361
  37.2514660 102.4669244  55.1840608  38.6042947 101.7966522  55.2957249
  44.6245770 100.7501363  65.4375087  45.1214469  99.9971326  65.1176157
  43.8532751 100.7865680  64.8718296  52.4775527 106.4541729  67.0793378
  52.4665404 107.3366444  66.7087311  51.6092907 106.1013280  66.8847915
  41.2080739 102.8918746  65.1646771  40.8378526 102.3389787  65.8527677
  41.7039831 102.2876880  64.6121771  49.0948102 105.3490370  63.5463544
  49.5608554 106.1818362  63.4723847  49.5455602 104.8835352  64.2508803
  47.0664765  97.7170957  67.5854446  46.1527844  97.9475184  67.7536653
  47.4957866  97.8009401  68.4368478  46.8371223 105.9060849  70.0854340
  46.1842673 106.1536756  69.4306792  47.2151603 105.0924987  69.7516817
  36.6046072 100.3022737  71.4099877  36.6687399 101.1637568  70.9977275
  36.5413193  99.6896739  70.6772236  36.0798345 102.3745870  75.0572912
  36.7070384 101.9922947  75.6710436  35.2226264 102.1560072  75.4228604
  36.3858135 102.2578295  66.9718815  35.6644720 102.8714263  66.8326288
  37.1751390 102.7936060  66.8935461  39.1884448  99.5932722  73.2459467
  39.7118850  99.8395019  74.0085776  38.9696781 100.4252757  72.8262604
  34.5851729 101.8636397  61.1130592  34.2564435 100.9833775  60.9305698
  34.9391100 101.8084065  62.0006981  37.6993552 102.1509366  61.4806069
  38.0389625 102.6795288  60.7584678  38.1465673 102.4889772  62.2564636
  40.3936993 100.5346417  70.9309137  40.0533813  99.7354230  71.3329817
  39.6875999 100.8348128  70.3585971  41.0453465  97.6195729  69.3836460
  41.8679534  97.1456208  69.2615351  41.2891528  98.3986213  69.8835147
  39.6861699 100.6483988  59.6799362  40.4070062 101.0265241  59.1763079
  39.0627004 101.3672865  59.7834340  43.8292822 101.3529137  60.6157694
  44.0456437 102.2353775  60.3146523  43.3486889 100.9615350  59.8863336
  40.4288427 101.3017398  67.2409329  40.4149995 100.4058491  66.9041627
  41.1460855 101.3088062  67.8747615  42.2814557 101.7354738  69.2862456
  42.0232335 102.6571809  69.2846786  41.7499598 101.3385173  69.9762920
  39.8325323 100.1831778  62.5096899  39.9541234  99.2548425  62.7087786
  39.5427365 100.1970464  61.5975214  42.7016513  97.8686689  65.6463619
  42.7238210  97.9326022  64.6915598  43.1184572  97.0291197  65.8404125
  53.0800137 107.6041948  63.6842841  53.5231283 106.8549274  63.2861964
  52.2026648 107.5952085  63.3016573  39.3166402 101.6963776  76.7186831
  39.3654558 102.5725899  76.3364601  39.8588916 101.1541169  76.1458475
  47.2122885 105.0728293  74.6280004  48.1132748 104.9334758  74.3364001
  47.2870860 105.2382748  75.5678181  41.5465690 102.4495148  73.4733190
  40.6769000 102.7428714  73.2015779  41.7825171 103.0335593  74.1940454
  49.6724508 106.6326922  72.0242776  50.1478629 106.8254568  71.2161628
  48.7490073 106.6886107  71.7786160  44.2504724  98.6674765  70.9898610
  44.7686668  99.4035792  70.6645099  43.8959857  98.9738758  71.8245369
  44.5017318  95.0875048  66.5099507  44.7819072  94.4198237  67.1359933
  45.2867925  95.2804143  65.9974171  48.3726177 103.5092682  70.2571082
  49.3243600 103.6090779  70.2783306  48.2029627 102.7170950  70.7669166
  46.3940556 100.5948265  70.4430483  45.7990488 100.8753278  69.7476972
  46.1090253 101.0842166  71.2147224  50.8514255 106.7298801  69.3713382
  50.8190575 105.7914802  69.5573066  51.4614878 106.8082838  68.6379207
  51.0008743 103.5209845  69.4171665  50.4847792 102.7368301  69.2301594
  51.8848692 103.1928561  69.5818184  48.6619470  97.2650860  65.3767478
  48.4644291  96.9565949  66.2610810  49.2719176  97.9912499  65.5065407
  56.6690804 107.7914808  68.5119419  57.3994193 107.5300096  69.0727122
  56.0597750 107.0543530  68.5521486  54.7506102 105.9322671  69.1093870
  54.0239265 105.7978636  68.5010361  54.3353388 106.2399499  69.9150588
  40.8740503 103.5244831  55.3495471  39.9671958 103.2277943  55.4258185
  41.1516484 103.2274649  54.4829757  42.4902568  98.0681720  61.5039712
  41.6803297  97.7228805  61.8794958  43.1786985  97.7589264  62.0927324
  44.4193117  97.1459767  63.1264009  44.9724155  97.5655221  63.7854032
  44.6563203  96.2195515  63.1686965  40.4426216 103.1346841  78.9066773
  40.3422943 104.0841198  78.8378864  40.2247758 102.8065080  78.0342843
  39.6439287 100.3831766  55.4907450  40.5058451 100.7086664  55.7503268
  39.8289631  99.5963262  54.9780516  47.7971924  99.2560292  62.6342673
  47.2170593  99.9145096  62.2520726  47.5307856  98.4337637  62.2230091
  46.2475490  98.6565350  64.8363994  46.7475268  98.7681885  64.0278312
  46.8911098  98.3526403  65.4764802  46.5796802 101.4160383  61.6899021
  45.6922657 101.7010033  61.4719216  46.9950791 101.2554146  60.8426298
  49.9311338 101.4406904  65.4053361  50.7071728 101.9303356  65.6777978
  49.2059472 101.8664958  65.8625230  52.3683897 102.1534523  66.4627301
  52.9628387 101.9130259  65.7520610  52.4410480 101.4341654  67.0900838
  50.3642631 102.7204651  62.7299431  50.1079566 102.3201286  63.5607639
  49.7395499 103.4348444  62.6049570  54.6754969 105.4600724  65.2370722
  54.1154527 105.5293913  66.0102285  54.0698473 105.2841708  64.5170219
  40.5968730  97.6227809  58.7787159  40.5847400  98.5669649  58.9355430
  41.4892152  97.4397954  58.4846620  44.4120850  94.2170586  63.0333096
  43.6453246  93.6629072  63.1789778  44.8231555  94.2892454  63.8947248
  36.4162611 100.5055381  77.1238277  37.2794072 100.1492186  77.3341602
  35.8428021 100.1669276  77.8113681  55.2514604 109.5462503  63.0333096
  54.4847000 108.9920990  63.1789778  55.6625309 109.6184372  63.8947248
   2.0642217  22.4959772  54.6545985   2.7020626  22.3766519  53.9509325
   1.9463059  23.4440616  54.7133937   1.6183485  20.2211226  51.7299193
   2.4046574  19.8030649  51.3789610   1.8822189  21.1257318  51.8980841
   1.7893562  25.6584076  46.4287850   1.1539395  25.7318703  47.1408754
   1.4590969  26.2477675  45.7506929   7.0191912  20.1586459  52.6332171
   7.7517084  19.5885676  52.8670001   6.2631268  19.7708059  53.0738677
   4.5417332  13.8708033  57.0926780   4.2100657  14.7403444  56.8687995
   3.9462946  13.5544317  57.7720810   1.0348852  26.0720579  56.4922693
   0.7349575  26.9745618  56.3838500   0.6899912  25.8052762  57.3443846
   4.4345996  18.5903119  54.1720130   3.5262873  18.5218528  53.8778891
   4.3833592  19.0675064  55.0001956   6.3007642  16.7919558  55.9498004
   5.6582022  17.0852091  55.3037799   5.7962571  16.6772478  56.7551201
   3.9547806  20.5382731  46.6383863   4.8665662  20.7710118  46.4631561
   3.4457453  21.1219775  46.0758942   2.2388574  24.9607359  60.2745156
   2.6471930  24.5189769  59.5299788   1.5165835  24.3859986  60.5279349
   2.5617388  25.5208549  54.0297445   1.9326251  25.6854263  53.3273513
   2.1743050  25.9350159  54.8008409   6.4406620  26.4562987  51.3841808
   5.7557658  26.8361889  50.8338842   6.5250469  27.0658314  52.1173756
   1.7419089  17.5584334  59.3059886   1.4980021  18.3126394  58.7694162
   2.0179019  17.9369681  60.1407133   3.6957552  24.1022946  57.9837152
   3.9074447  24.7454706  57.3071533   3.6487300  23.2685263  57.5159082
   4.8103380  26.9794902  56.1559509   5.6320823  26.5775089  55.8742191
   4.8065783  26.8763136  57.1075625  12.9009373  23.3233650  52.5044481
  12.1473081  22.7541048  52.3488485  13.0356914  23.2896315  53.4515116
   2.0157715  29.0973419  60.3380944   1.9976191  29.9182300  59.8461213
   2.9377635  28.9727494  60.5631085   1.6050747  21.7086225  45.2170529
   1.0897370  22.4790830  45.4558916   1.3328055  21.0351362  45.8403590
   6.5785021  24.4618580  47.1523702   5.8014464  24.1229740  46.7078864
   7.2576502  24.4671203  46.4778667   1.3937050  19.5813317  47.0430310
   1.0887186  19.8959467  47.8940453   2.3467492  19.6594737  47.0857643
   4.8176328  23.9352561  53.8090310   4.1600003  24.6251823  53.8970439
   5.6216727  24.3248993  54.1524297   3.6281787  22.2896934  51.8594252
   4.1413669  22.9226926  52.3615962   4.2783011  21.6898129  51.4937612
   0.8897666  21.1637805  49.2355273   1.6369484  21.6759202  48.9262395
   1.1589255  20.8421858  50.0959666   4.3943583  27.2702935  49.9873395
   3.9405910  26.4293845  50.0438585   3.7637550  27.9064334  50.3248175
   3.3376503  18.1994921  51.2174062   2.5999259  17.6872308  51.5484305
   3.5903276  17.7595303  50.4057339   2.8376522  29.1079432  50.9223213
   3.1299497  29.6684489  50.2035578   3.3475143  29.4007993  51.6776372
   1.2475781  20.3543851  58.9097295   1.6025169  20.5815324  59.7691761
   1.8947913  20.6862228  58.2874550   6.9773518  23.4762287  49.6146624
   6.8391417  23.6663883  48.6867813   6.6209737  24.2381669  50.0714675
   7.0042898  25.5438814  54.6257896   7.4379405  25.4514103  55.4740950
   7.7174479  25.5196314  53.9877912   7.8658447  25.5862514  57.1590781
   8.0594338  26.4908325  57.4050056   7.7659066  25.1269933  57.9929366
   2.9273556  25.7369257  62.7331662   2.7759063  25.5079809  61.8161745
   2.9178236  26.6939858  62.7463007   2.9811631  24.0589471  43.1502363
   2.3640802  23.3336299  43.0535416   2.5128120  24.8198832  42.8069437
   4.6365763  28.7688380  60.8108144   4.5778309  28.0847600  60.1438727
   5.0385281  29.5107370  60.3588770   4.6383170  26.7327964  59.0422123
   3.7509949  26.3953885  59.1648522   5.2081721  26.0010995  59.2790889
   1.2670753  16.4395815  52.1620393   1.7639453  15.6865778  51.8421464
   0.4957735  16.4760132  51.5963603   9.1200511  22.1436181  53.8038685
   9.1090387  23.0260896  53.4332618   8.2517890  21.7907732  53.6093222
   2.3500534  25.1967503  49.7358817   1.4156813  25.3168965  49.5663521
   2.5277202  24.2939969  49.4718827   5.7373085  21.0384822  50.2708851
   6.2033537  21.8712813  50.1969154   6.1880586  20.5729803  50.9754109
   3.8049316  27.3828643  47.2695003   4.0809160  27.2685238  48.1788877
   2.9353815  26.9846128  47.2307176   3.4796206  21.5955301  56.8099646
   2.8267657  21.8431208  56.1552099   3.8576586  20.7819439  56.4762124
   0.7745546  30.5583179  48.1742865   1.3033312  30.0475634  47.5613027
   1.0373765  30.2425709  49.0388398   3.1217437  28.4703297  63.3871954
   3.6657341  29.0833255  62.8926909   2.5404282  29.0282875  63.9038967
   1.4074950  31.5924015  54.5186982   1.2826089  30.7913755  54.0097927
   2.0654041  32.0870208  54.0300951   3.4709858  29.3933035  56.1466532
   2.5240194  29.2738386  56.0744858   3.8192631  28.5055533  56.2292793
   4.0790413  30.0114310  53.4335757   5.0036961  29.8057171  53.2960208
   3.9105717  29.7630711  54.3425098   3.8685729  30.5299977  48.7897848
   4.0422607  29.9646400  48.0371700   4.3614621  31.3300872  48.6077338
   9.7225121  23.2936400  50.4088148  10.1656267  22.5443725  50.0107271
   8.8451631  23.2846537  50.0261880   4.8560902  29.8466742  45.8894746
   5.5511806  30.4673434  46.1082061   5.1984052  28.9962093  46.1647124
   6.7552325  27.2966447  47.4182077   7.2803649  27.6353720  46.6931397
   6.6674678  26.3613463  47.2345212   6.4446231  27.9299351  62.7233275
   5.6541775  27.9123490  62.1837774   6.2079586  28.4687645  63.4782312
   6.5644106  24.7791817  60.0366004   6.6142111  24.6141825  60.9781526
   6.4558029  23.9119076  59.6463884   3.8547868  20.7622745  61.3525310
   4.7557731  20.6229210  61.0609308   3.9295843  20.9277200  62.2923488
   8.0662303  27.1988759  60.2808025   7.7747111  27.5618739  61.1171486
   7.4534434  26.4855767  60.1021357   9.2657985  24.7641639  52.8010595
  10.1004877  25.2031443  52.9648156   9.4017114  24.2880292  51.9818841
   6.3149491  22.3221373  58.7488083   6.7903613  22.5149020  57.9406934
   5.3915057  22.3780559  58.5031467   5.0151160  19.1987134  56.9816389
   5.9668583  19.2985231  57.0028613   4.8454611  18.4065402  57.4914473
   3.0365540  16.2842717  57.1675790   2.4415472  16.5647729  56.4722278
   2.7515236  16.7736618  57.9392531   2.1673030  30.2365644  45.9278422
   3.1003703  30.1711205  46.1311298   2.0796243  31.0721910  45.4692955
   4.7961047  29.5531514  42.8882370   4.7174678  29.2191378  43.7818128
   5.6170714  30.0453282  42.8873842   7.4939238  22.4193253  56.0958688
   7.4615558  21.4809254  56.2818372   8.1039862  22.4977290  55.3624513
   7.6433726  19.2104297  56.1416972   7.1272775  18.4262753  55.9546900
   8.5273675  18.8823013  56.3063491  13.3115788  23.4809260  55.2364725
  14.0419176  23.2194548  55.7972428  12.7022733  22.7437982  55.2766793
  11.3931085  21.6217123  55.8339176  10.6664248  21.4873088  55.2255668
  10.9778372  21.9293951  56.6395894   4.4396907  14.9454744  49.3587980
   3.8595576  15.6039548  48.9766032   4.1732840  14.1232089  48.9475397
   2.8900473  14.3459802  51.5609300   3.3900252  14.4576336  50.7523619
   3.5336081  14.0420855  52.2010109   3.2221785  17.1054835  48.4144328
   2.3347640  17.3904485  48.1964523   3.6375774  16.9448598  47.5671605
   6.5736321  17.1301356  52.1298667   7.3496711  17.6197808  52.4023284
   5.8484455  17.5559410  52.5870537   9.0108880  17.8428975  53.1872608
   9.6053371  17.6024711  52.4765916   9.0835464  17.1236105  53.8146144
   2.3664999  26.8699509  42.5092348   3.0700849  27.0749512  43.1250004
   1.6427647  27.4376271  42.7741432   3.1962809  22.6209371  48.6294618
   3.1398010  23.0777922  47.7902251   3.7491151  21.8600055  48.4517461
   7.0067615  18.4099102  49.4544738   6.7504549  18.0095738  50.2852945
   6.3820483  19.1242896  49.3294877  11.3179953  21.1495176  51.9616029
  10.7579511  21.2188365  52.7347591  10.7123456  20.9736160  51.2415525
   4.2751696  27.3082039  44.5590808   5.1097300  26.8763237  44.3768283
   4.1136039  27.1364052  45.4867703   3.9297588  23.8114152  45.9247147
   3.8746392  23.6458423  44.9835592   3.3043643  24.5190185  46.0809337
   1.2443495  26.1163064  65.2500710   2.1134655  26.2903716  64.8887345
   0.7650247  26.9357481  65.1276440  12.9035971  37.8251690  54.6545985
  13.5414381  37.7058437  53.9509325  12.7856814  38.7732534  54.7133937
   9.7125677  37.7779118  54.5907510   9.3744189  37.6620182  53.7028044
  10.5815446  37.3770283  54.5708516   5.5712493  39.6314594  50.5804401
   5.0077358  39.5404531  49.8120688   5.4564888  38.8114499  51.0606893
  10.1945460  38.9313969  60.5493715  10.1834101  38.5366768  59.6774219
  10.3566100  38.1980042  61.1427487   3.1176925  41.1265786  53.4188621
   3.9098217  40.7856610  53.0034920   3.3573575  41.2360761  54.3390774
  11.1512052  43.2985562  45.8918865  10.5000031  43.8839642  45.5052879
  11.9456415  43.8291757  45.9513903   5.0767679  40.3874699  46.2906000
   5.8498555  39.8403686  46.1518876   5.4293078  41.2518948  46.5020461
   6.9152721  41.7151081  59.4972899   6.6242587  42.6196712  59.3819565
   7.5509706  41.7567609  60.2116969   7.8408928  39.0927930  56.0874259
   8.4372501  38.8683952  55.3731222   7.8983900  38.3512675  56.6899707
   7.4133957  36.5467365  43.9224450   7.6659477  36.0248886  43.1607913
   6.4758516  36.3833511  44.0251133  12.4577240  35.5503143  51.7299193
  13.2440329  35.1322567  51.3789610  12.7215944  36.4549236  51.8980841
  12.6287317  40.9875994  46.4287850  11.9933150  41.0610620  47.1408754
  12.2984723  41.5769593  45.7506929  17.8585667  35.4878377  52.6332171
  18.5910839  34.9177593  52.8670001  17.1025022  35.0999977  53.0738677
   7.1330245  38.4495471  46.1248825   7.0166504  37.7740374  46.7929909
   7.2432505  37.9627845  45.3080978   9.4761786  37.9105618  49.8295514
   9.1119994  37.3836239  50.5408435  10.3328902  37.5204087  49.6561999
  15.3811087  29.1999951  57.0926780  15.0494412  30.0695362  56.8687995
  14.7856700  28.8836235  57.7720810   9.1167273  32.9395518  44.8256862
   9.2841676  33.8075754  45.1927333   8.9264442  33.1022800  43.9018152
  11.8742607  41.4012497  56.4922693  11.5743330  42.3037536  56.3838500
  11.5293666  41.1344680  57.3443846   5.3255088  37.8526294  52.5259397
   4.4005584  37.7202508  52.7337089   5.5739501  38.6320513  53.0229340
  15.2739750  33.9195037  54.1720130  14.3656628  33.8510445  53.8778891
  15.2227346  34.3966982  55.0001956   9.0956494  35.3953175  45.8103529
   8.9756119  35.8410226  46.6489009   8.4009083  35.7438493  45.2517067
   2.6863899  37.4959567  53.3603186   2.8156280  37.7494046  54.2742598
   2.0061350  38.0887275  53.0407841   6.8563386  48.1656817  49.4593660
   6.7787416  49.1164642  49.5382141   6.2525030  47.8202690  50.1168587
   9.3480616  35.3384683  62.1155027   8.5713950  35.8978603  62.1057892
   9.9871179  35.8241466  62.6369897  17.1401397  32.1211475  55.9498004
  16.4975777  32.4144009  55.3037799  16.6356325  32.0064396  56.7551201
  14.7941560  35.8674649  46.6383863  15.7059416  36.1002035  46.4631561
  14.2851207  36.4511693  46.0758942   7.6026988  38.1470136  61.6772994
   8.3441673  38.6855180  61.4007818   6.8963974  38.7736425  61.8344546
  13.0782328  40.2899276  60.2745156  13.4865684  39.8481687  59.5299788
  12.3559590  39.7151904  60.5279349   9.4313398  35.2271883  57.6478713
  10.2774593  35.6511297  57.7913362   9.3712036  34.5705507  58.3417276
  13.4011143  40.8500467  54.0297445  12.7720005  41.0146181  53.3273513
  13.0136805  41.2642077  54.8008409  17.2800375  41.7854905  51.3841808
  16.5951413  42.1653806  50.8338842  17.3644224  42.3950232  52.1173756
  12.5812843  32.8876251  59.3059886  12.3373775  33.6418312  58.7694162
  12.8572774  33.2661599  60.1407133  14.5351306  39.4314864  57.9837152
  14.7468201  40.0746624  57.3071533  14.4881054  38.5977180  57.5159082
  12.1377535  32.0432685  54.8873724  11.2762014  32.3413938  55.1790462
  12.1639970  32.2603083  53.9554757   8.9539105  40.5874875  51.2947530
   9.4177450  40.8662578  50.5052152   8.6895903  39.6858320  51.1120621
   5.8463186  40.1346357  54.2327293   6.4164543  40.5633625  53.5944778
   6.4371297  39.8528941  54.9311479   7.8907991  36.7098027  48.1037095
   8.5932034  37.1619071  48.5711021   7.5588619  36.0681846  48.7316988
   6.3388352  35.3009784  62.4788304   5.7087013  35.9826065  62.7123701
   6.2324440  35.1892866  61.5341443   1.6333325  34.9681580  53.4054229
   0.8432379  35.2239109  52.9294339   2.1244572  35.7829918  53.5106269
  15.6497134  42.3086819  56.1559509  16.4714578  41.9067007  55.8742191
  15.6459537  42.2055053  57.1075625   3.5848070  35.3326159  50.3637705
   2.7879233  35.4444854  50.8821201   3.3573662  35.6712812  49.4978596
   9.4153738  41.8570863  58.3120220   9.4798170  42.3191270  59.1478392
   8.7064661  41.2268228  58.4402530  23.7403127  38.6525568  52.5044481
  22.9866836  38.0832966  52.3488485  23.8750668  38.6188232  53.4515116
   9.1301755  43.5238970  48.1799200   8.9947430  44.3690506  48.6084048
   9.6711568  43.7258248  47.4165134   5.6169095  29.6030550  64.8413555
   5.2236040  29.0496748  65.5161200   6.4335235  29.9141128  65.2320073
   2.5831153  41.0414408  48.7527125   3.0955673  41.8357658  48.9032690
   3.2353865  40.3440699  48.6860727   4.3926037  44.1580164  50.8349878
   4.5692666  45.0798129  50.6470862   5.1882871  43.8438584  51.2644258
   8.5337056  31.0188429  62.4333812   9.2746769  31.6195582  62.3538274
   8.7654979  30.2766067  61.8751855   3.6778394  36.2044796  60.7112042
   3.5631909  35.3030054  61.0119141   2.8222912  36.4508493  60.3596858
  10.7570232  44.1462537  62.3099542  10.3134086  43.3598915  61.9920447
  11.4187445  44.3341687  61.6443433   5.5157353  45.6758338  56.8360221
   6.0664778  45.5475402  56.0637215   4.6768829  45.9753227  56.4855114
  12.8551470  44.4265337  60.3380944  12.8369945  45.2474218  59.8461213
  13.7771390  44.3019412  60.5631085   9.3124524  41.9409466  61.1804452
   9.8452861  41.1797754  60.9503760   8.7838605  41.6483118  61.9228606
  12.4794219  27.0469532  56.7098094  12.1358488  27.9371174  56.6337204
  12.8473181  26.8571190  55.8467679   0.5480069  39.3703062  49.5286696
   1.3855291  39.7800071  49.3120404   0.7258337  38.4302505  49.4986890
  12.4444502  37.0378143  45.2170529  11.9291125  37.8082748  45.4558916
  12.1721810  36.3643279  45.8403590  10.0291613  31.8827844  50.2755767
   9.1733209  31.4934694  50.0961406  10.4418564  31.9619805  49.4155553
  11.5590759  29.4174187  54.6747327  11.0555555  29.3804322  53.8615132
  11.8521366  30.3266930  54.7343984   7.8033645  29.5012917  53.6813509
   8.6686642  29.3055726  53.3219398   7.8711154  29.2723269  54.6082865
  17.4178776  39.7910498  47.1523702  16.6408218  39.4521657  46.7078864
  18.0970257  39.7963121  46.4778667  12.2330805  34.9105235  47.0430310
  11.9280940  35.2251384  47.8940453  13.1861247  34.9886655  47.0857643
  10.6777237  41.0695458  48.6923264  10.1498598  40.3348218  48.3796501
  10.1764739  41.8470135  48.4463232  15.6570083  39.2644479  53.8090310
  14.9993757  39.9543740  53.8970439  16.4610482  39.6540911  54.1524297
   5.4095964  31.7315125  51.0529875   5.9839716  31.5090306  50.3203068
   5.9966947  31.8003819  51.8058477  14.4675541  37.6188852  51.8594252
  14.9807423  38.2518843  52.3615962  15.1176765  37.0190047  51.4937612
   5.7365551  33.7619586  45.0725761   4.9002864  34.0994272  45.3935035
   5.5970321  33.6268566  44.1352898   7.7118632  28.6056374  49.7804945
   7.0583044  28.2905391  49.1561560   7.6699106  27.9832114  50.5064768
   8.8229837  38.8875669  41.6958237   7.9156898  38.6564922  41.8949386
   9.3200869  38.0913288  41.8832218  11.7297916  47.5973176  44.6154923
  11.0559614  47.9004873  45.2239881  12.1163738  48.4002256  44.2660380
  10.9456372  35.0938307  54.1052592  10.0278934  35.3153254  53.9474281
  11.3616516  35.1684618  53.2464300  11.7291420  36.4929723  49.2355273
  12.4763239  37.0051120  48.9262395  11.9983010  36.1713776  50.0959666
  10.0018070  38.9888264  46.2182227   9.0929289  38.7047296  46.3154697
  10.0313154  39.4087342  45.3585534  15.2337338  42.5994853  49.9873395
  14.7799665  41.7585763  50.0438585  14.6031304  43.2356251  50.3248175
  14.1770257  33.5286839  51.2174062  13.4393014  33.0164225  51.5484305
  14.4297031  33.0887221  50.4057339  13.6770277  44.4371350  50.9223213
  13.9693251  44.9976407  50.2035578  14.1868897  44.7299911  51.6776372
  14.2781884  26.3063091  51.8115831  14.5840761  25.4460455  51.5241746
  15.0034489  26.8980711  51.6114825   8.5502964  36.6016884  52.3192022
   8.6051574  35.6490721  52.2434499   7.7394166  36.7576323  52.8033321
   9.6994158  40.5297007  43.5570306   9.2613588  39.8132866  43.0975943
  10.4404599  40.7573122  42.9955397   6.4895324  35.2193944  50.0782401
   5.6763190  35.5188115  50.4847593   6.9854318  34.8249633  50.7956884
   8.6403902  45.2151701  52.0116666   8.5980081  45.4412547  51.0825198
   9.5566601  44.9815075  52.1602467  12.0869536  35.6835768  58.9097295
  12.4418924  35.9107242  59.7691761  12.7341667  36.0154145  58.2874550
  17.8167273  38.8054204  49.6146624  17.6785171  38.9955800  48.6867813
  17.4603492  39.5673587  50.0714675   5.9809399  32.7912299  55.6943636
   6.6208778  32.6501059  54.9966600   5.1486929  32.5046813  55.3182238
  17.8436652  40.8730731  54.6257896  18.2773159  40.7806020  55.4740950
  18.5568233  40.8488232  53.9877912   6.7569703  42.0914730  51.8078629
   7.5510301  41.5965050  51.6061204   6.0461395  41.5632593  51.4446334
  11.5764547  44.4732825  56.1590996  11.6301570  45.0423762  56.9268712
  10.7079329  44.6434710  55.7945033   3.0652466  36.2357812  47.8838381
   2.1350054  36.1742267  48.1008343   3.1609938  35.7133764  47.0875023
   2.9838015  32.7612624  50.4716623   3.2444833  33.6757958  50.3625783
   3.8055188  32.2937067  50.6213236   4.4562941  34.1750382  57.6415448
   5.1285994  33.9667744  56.9928096   3.6292727  33.9772468  57.2020680
  18.7052202  40.9154432  57.1590781  18.8988092  41.8200242  57.4050056
  18.6052820  40.4561851  57.9929366  10.3588513  30.8012323  59.6581108
   9.7116428  31.5002272  59.5645585  11.1289528  31.2348466  60.0257357
  13.7667311  41.0661175  62.7331662  13.6152817  40.8371726  61.8161745
  13.7571990  42.0231776  62.7463007  10.5352647  38.6393087  57.7177928
  11.4644707  38.7904247  57.5446895  10.1143677  38.7277108  56.8626575
   9.3340979  42.6643752  55.4876466   9.1952064  42.2962536  56.3602404
   8.5455575  43.1791391  55.3160424   9.9289131  47.7652848  46.8302002
  10.1040886  47.2940892  47.6447625   9.2421919  48.3918615  47.0583263
  10.8846194  42.0425355  52.8765304  10.5496027  42.0026125  53.7722953
  10.3850140  41.3770070  52.4035714   4.8590438  37.4492985  58.4017885
   4.7210236  36.7173223  59.0029424   5.7695361  37.3601885  58.1202072
  13.8205386  39.3881389  43.1502363  13.2034556  38.6628217  43.0535416
  13.3521874  40.1490749  42.8069437   7.4872739  37.1612944  57.8901564
   8.1972357  36.5206136  57.8488183   7.4442047  37.4125839  58.8127745
  15.4759517  44.0980297  60.8108144  15.4172063  43.4139517  60.1438727
  15.8779036  44.8399287  60.3588770   6.2001673  34.1478162  59.7097204
   5.6639030  33.6968900  60.3618800   5.6118381  34.2824071  58.9667668
   4.4950216  50.9142211  53.6041862   4.7346814  51.5460735  54.2820881
   3.6519413  50.5630251  53.8907222   5.6103931  33.6066813  42.2723667
   4.7333398  33.4855614  41.9085914   6.0861685  32.8152892  42.0202556
  15.4776925  42.0619881  59.0422123  14.5903703  41.7245803  59.1648522
  16.0475476  41.3302912  59.2790889   1.9340794  33.2834170  56.7950198
   1.8498983  32.6759839  56.0600608   1.1123500  33.7743188  56.7959695
   9.0078078  46.7221334  56.0083366   8.9348249  47.5276305  56.5202671
   8.5655471  46.9213299  55.1831388   8.7967858  45.9593104  49.5186188
   8.0135379  46.5014784  49.6124413   9.4960603  46.4767083  49.9180429
  12.1064508  31.7687733  52.1620393  12.6033207  31.0157695  51.8421464
  11.3351489  31.8052050  51.5963603  19.9594265  37.4728099  53.8038685
  19.9484141  38.3552814  53.4332618  19.0911644  37.1199649  53.6093222
  11.4676761  46.6208168  58.1641525  12.1804734  47.2555632  58.0917427
  10.9766790  46.7172034  57.3481527  13.1894288  40.5259420  49.7358817
  12.2550567  40.6460883  49.5663521  13.3670957  39.6231887  49.4718827
   8.6899476  33.9105116  51.8892078   8.3197264  33.3576156  52.5772984
   9.1858569  33.3063250  51.3367078  16.5766840  36.3676740  50.2708851
  17.0427292  37.2004731  50.1969154  17.0274340  35.9021721  50.9754109
   6.5188675  44.3702611  58.9847096   7.2198134  45.0039094  59.1376490
   6.0483790  44.7117343  58.2242735  14.6443071  42.7120561  47.2695003
  14.9202915  42.5977155  48.1788877  13.7747570  42.3138046  47.2307176
  14.5483502  28.7357327  54.3099752  13.6346582  28.9661553  54.4781959
  14.9776604  28.8195771  55.1613785  14.3189961  36.9247219  56.8099646
  13.6661411  37.1723126  56.1552099  14.6970341  36.1111357  56.4762124
  11.2797135  46.9606912  50.9127817  11.4619529  46.1428568  51.3755569
  12.1030121  47.1774604  50.4752707  11.6139300  45.8875097  48.1742865
  12.1427067  45.3767551  47.5613027  11.8767520  45.5717627  49.0388398
  10.3677534  37.6667030  63.2965683   9.6918171  37.5661159  63.9668059
  11.1905168  37.5106243  63.7601681   2.1156393  43.9038966  55.9178199
   2.7009830  43.1582654  56.0506103   1.9181231  44.2142923  56.8014863
   4.9695048  46.9390213  50.9340641   4.3005424  47.4236341  50.4504681
   4.8307918  47.1859434  51.8484020   9.1100317  48.9733957  57.5323299
   9.6618625  49.1365579  58.2972385   9.4506510  49.5638395  56.8603324
   4.0864810  31.3209107  58.1345184   4.1506137  32.1823938  57.7222582
   4.0231930  30.7083108  57.4017543   3.5617083  33.3932239  61.7818218
   4.1889121  33.0109317  62.3955743   2.7045001  33.1746441  62.1473911
  13.9611191  43.7995215  63.3871954  14.5051095  44.4125173  62.8926909
  13.3798036  44.3574793  63.9038967   3.8676872  33.2764665  53.6964122
   3.1463458  33.8900633  53.5571595   4.6570128  33.8122430  53.6180768
  14.3103612  44.7224953  56.1466532  13.3633948  44.6030304  56.0744858
  14.6586386  43.8347451  56.2292793   6.6703186  30.6119092  59.9704774
   7.1937588  30.8581388  60.7331083   6.4515519  31.4439126  59.5507911
   2.0670467  32.8822766  47.8375898   1.7383173  32.0020145  47.6551004
   2.4209838  32.8270435  48.7252288  11.3150046  44.5177669  52.3470884
  11.1675008  43.5894376  52.5278454  12.1403539  44.5397760  51.8627959
   5.1812290  33.1695736  48.2051376   5.5208363  33.6981657  47.4829984
   5.6284411  33.5076142  48.9809943  14.9184168  45.3406228  53.4335757
  15.8430715  45.1349089  53.2960208  14.7499471  45.0922629  54.3425098
   7.8755731  31.5532787  57.6554444   7.5352551  30.7540600  58.0575124
   7.1694737  31.8534497  57.0831277   8.5272203  28.6382099  56.1081767
   9.3498272  28.1642577  55.9860657   8.7710266  29.4172583  56.6080453
   7.1680437  31.6670358  46.4044669   7.8888800  32.0451610  45.9008386
   6.5445741  32.3859234  46.5079647  11.3111560  32.3715506  47.3403001
  11.5275174  33.2540144  47.0391829  10.8305627  31.9801720  46.6108643
   6.0510781  35.3301220  53.9173746   5.9055362  35.6441523  54.8098027
   5.5735985  35.9486120  53.3644644   7.9107164  32.3203768  53.9654635
   7.8968733  31.4244861  53.6286933   8.6279592  32.3274431  54.5992921
   9.7633295  32.7541108  56.0107763   9.5051073  33.6758179  56.0092093
   9.2318335  32.3571542  56.7008227  14.7079484  45.8591895  48.7897848
  14.8816361  45.2938318  48.0371700  15.2008375  46.6592790  48.6077338
   7.3144060  31.2018148  49.2342205   7.4359971  30.2734794  49.4333093
   7.0246103  31.2156834  48.3220521  10.1835251  28.8873058  52.3708925
  10.2056948  28.9512392  51.4160905  10.6003310  28.0477567  52.5649431
  20.5618875  38.6228318  50.4088148  21.0050021  37.8735643  50.0107271
  19.6845385  38.6138454  50.0261880  15.6954656  45.1758659  45.8894746
  16.3905561  45.7965352  46.1082061  16.0377806  44.3254011  46.1647124
   1.3122466  36.9976460  59.7491564   0.5704202  37.1459096  60.3356194
   0.9915210  37.2584726  58.8858313  17.5946079  42.6258365  47.4182077
  18.1197404  42.9645638  46.6931397  17.5068432  41.6905380  47.2345212
   9.2566128  46.5392439  59.5471954   9.5653255  46.2941585  60.4194653
  10.0541610  46.7439077  59.0590824   9.2786740  48.6930348  51.7777330
   8.8391730  48.2006727  52.4710187  10.0294857  48.1503316  51.5369406
   1.7579079  44.8841889  51.7801958   2.5837099  44.5845661  51.4000602
   1.4073131  44.1149512  52.2291747   6.7260612  44.2368357  53.8499632
   6.1040622  43.5739062  53.5501860   7.3965479  44.2629489  53.1673280
   6.7985140  32.7150145  63.4432138   6.8473295  33.5912268  63.0609908
   7.3407654  32.1727538  62.8703781  17.2839986  43.2591269  62.7233275
  16.4935529  43.2415407  62.1837774  17.0473340  43.7979562  63.4782312
  17.4037861  40.1083735  60.0366004  17.4535866  39.9433742  60.9781526
  17.2951784  39.2410994  59.6463884   6.2874119  42.7872281  47.3258092
   6.4362240  43.4707745  46.6724765   7.0940563  42.7677371  47.8407548
  14.6941623  36.0914663  61.3525310  15.5951486  35.9521128  61.0609308
  14.7689597  36.2569118  62.2923488   9.0284428  33.4681518  60.1978497
   8.1587738  33.7615084  59.9261085   9.2643909  34.0521963  60.9185760
  18.9056057  42.5280676  60.2808025  18.6140866  42.8910657  61.1171486
  18.2928189  41.8147685  60.1021357  20.1051740  40.0933556  52.8010595
  20.9398631  40.5323360  52.9648156  20.2410869  39.6172209  51.9818841
  17.1543246  37.6513291  58.7488083  17.6297367  37.8440937  57.9406934
  16.2308811  37.7072477  58.5031467   4.0426752  38.8137458  48.3319161
   3.7972794  37.9099788  48.5299372   4.2122667  38.8154609  47.3898639
  11.7323462  29.6861135  57.7143917  12.2505406  30.4222162  57.3890406
  11.3778595  29.9925128  58.5490676   3.3122400  34.5465816  45.8305323
   2.6191645  34.6210171  45.1745359   3.0674152  33.7826160  46.3526840
  11.9836056  26.1061417  53.2344814  12.2637810  25.4384606  53.8605240
  12.7686663  26.2990513  52.7219477   9.7869525  45.2820411  44.7969840
   9.2143492  45.9010598  44.3440312  10.3602318  45.8319773  45.3309762
  15.8544915  34.5279051  56.9816389  16.8062338  34.6277149  57.0028613
  15.6848365  33.7357320  57.4914473  13.8759294  31.6134634  57.1675790
  13.2809226  31.8939647  56.4722278  13.5908991  32.1028535  57.9392531
  13.0066785  45.5657561  45.9278422  13.9397458  45.5003123  46.1311298
  12.9189997  46.4013828  45.4692955  15.6354801  44.8823432  42.8882370
  15.5568433  44.5483295  43.7818128  16.4564468  45.3745199  42.8873842
  18.3332992  37.7485171  56.0958688  18.3009313  36.8101172  56.2818372
  18.9433616  37.8269208  55.3624513  10.1716323  36.6181224  42.1385892
  11.1175428  36.4887432  42.2074310   9.7930568  35.8795886  42.6155321
  18.4827481  34.5396214  56.1416972  17.9666530  33.7554671  55.9546900
  19.3667429  34.2114931  56.3063491  16.1438208  28.2837230  52.1012784
  15.9463029  27.9752318  52.9856116  16.7537913  29.0098869  52.2310714
  24.1509542  38.8101178  55.2364725  24.8812931  38.5486466  55.7972428
  23.5416488  38.0729900  55.2766793  22.2324839  36.9509040  55.8339176
  21.5058003  36.8165005  55.2255668  21.8172126  37.2585869  56.6395894
  10.0555016  40.6698970  63.5986549  10.9758025  40.8477569  63.7926596
  10.0204599  39.7255015  63.4466249   8.3559240  34.5431200  42.0740778
   7.4490696  34.2464313  42.1503491   8.6335221  34.2461018  41.2075064
   3.0517088  38.5800005  56.2409331   3.2703098  39.5117112  56.2597364
   3.4642862  38.2207979  57.0264134   9.9721306  29.0868090  48.2285019
   9.1622034  28.7415175  48.6040265  10.6605723  28.7775634  48.8172630
  11.9011854  28.1646137  49.8509316  12.4542893  28.5841590  50.5099339
  12.1381941  27.2381885  49.8932272   7.9244954  34.1533210  65.6312079
   7.8241681  35.1027567  65.5624171   7.7066496  33.8251449  64.7588150
   7.1258025  31.4018135  42.2152757   7.9877189  31.7273034  42.4748574
   7.3108369  30.6149631  41.7025823  15.2790662  30.2746662  49.3587980
  14.6989331  30.9331466  48.9766032  15.0126594  29.4524007  48.9475397
  13.7294228  29.6751720  51.5609300  14.2294006  29.7868254  50.7523619
  14.3729836  29.3712772  52.2010109   7.7876224  37.5830349  64.4477141
   7.3043305  38.3830709  64.6541030   7.8737163  37.5938294  63.4944585
   1.0562183  39.4158729  52.3698960   1.0332871  39.5146416  51.4180844
   1.3662820  40.2623880  52.6916127   3.7149561  41.4734884  56.4845575
   4.6692815  41.4418826  56.4175506   3.5162085  41.0125508  57.2995801
   4.3048943  40.0436000  59.0516373   5.1241832  40.5380079  59.0751210
   4.5785751  39.1267968  59.0233940  14.0615540  32.4346752  48.4144328
  13.1741395  32.7196403  48.1964523  14.4769529  32.2740516  47.5671605
  17.4130076  32.4593273  52.1298667  18.1890466  32.9489726  52.4023284
  16.6878210  32.8851327  52.5870537  19.8502634  33.1720893  53.1872608
  20.4447125  32.9316628  52.4765916  19.9229218  32.4528023  53.8146144
   2.0699790  47.0154503  53.5015773   1.9354258  46.2554904  52.9353771
   1.6531852  47.7395403  53.0344562  13.2058753  42.1991427  42.5092348
  13.9094603  42.4041429  43.1250004  12.4821402  42.7668189  42.7741432
  14.0356563  37.9501288  48.6294618  13.9791765  38.4069840  47.7902251
  14.5884906  37.1891973  48.4517461  17.8461369  33.7391020  49.4544738
  17.5898303  33.3387656  50.2852945  17.2214237  34.4534814  49.3294877
  22.1573707  36.4787093  51.9616029  21.5973265  36.5480283  52.7347591
  21.5517210  36.3028078  51.2415525   5.2268916  47.9123820  53.7134215
   5.1101300  48.8569253  53.6112906   4.4061362  47.6097382  54.1020015
  15.1145450  42.6373956  44.5590808  15.9491054  42.2055155  44.3768283
  14.9529793  42.4655970  45.4867703  14.7691343  39.1406069  45.9247147
  14.7140146  38.9750341  44.9835592  14.1437398  39.8482102  46.0809337
  12.0837250  41.4454981  65.2500710  12.9528409  41.6195634  64.8887345
  11.6044001  42.2649398  65.1276440   8.0787468  28.6414179  45.5032466
   8.0666138  29.5856018  45.6600737   8.9710890  28.4584324  45.2091927
   6.2523430  48.5652082  56.9290144   7.1550677  48.5975693  57.2456639
   6.0260800  47.6352533  56.9436480   8.0077032  47.3183069  53.5900222
   7.0572663  47.3184931  53.4764595   8.3109518  46.5715803  53.0736257
  11.8939588  25.2356955  49.7578403  11.1271983  24.6815442  49.9035085
  12.3050292  25.3078824  50.6192554   3.8981349  31.5241751  63.8483584
   4.7612810  31.1678556  64.0586908   3.3246759  31.1855646  64.5358988
  19.9561028  48.2687436  44.8256862  20.1235430  49.1367672  45.1927333
  19.7658197  48.4314717  43.9018152  16.4562849  44.9322468  64.8413555
  16.0629795  44.3788666  65.5161200  17.2728990  45.2433046  65.2320073
  23.3187973  42.3761450  56.7098094  22.9752243  43.2663091  56.6337204
  23.6866936  42.1863107  55.8467679  22.3984514  44.7466105  54.6747327
  21.8949309  44.7096240  53.8615132  22.6915121  45.6558848  54.7343984
  16.5759306  49.0911503  45.0725761  15.7396618  49.4286190  45.3935035
  16.4364075  48.9560483  44.1352898  25.1175639  41.6355009  51.8115831
  25.4234516  40.7752372  51.5241746  25.8428244  42.2272629  51.6114825
  15.3343971  66.2434129  53.6041862  15.5740569  66.8752653  54.2820881
  14.4913167  65.8922169  53.8907222  16.4497686  48.9358731  42.2723667
  15.5727152  48.8147532  41.9085914  16.9255439  48.1444809  42.0202556
   7.9699826  53.7235891  52.3665175   8.6570866  53.4097621  51.7786190
   7.8147955  54.6277255  52.0932426   7.5467802  51.8036484  54.6382642
   7.5851902  51.2700075  55.4319760   7.0408095  51.2771690  54.0193619
  14.9258565  46.6501024  58.1345184  14.9899891  47.5115855  57.7222582
  14.8625685  46.0375026  57.4017543  14.4010837  48.7224157  61.7818218
  15.0282876  48.3401234  62.3955743  13.5438756  48.5038359  62.1473911
  17.5096940  45.9411009  59.9704774  18.0331342  46.1873306  60.7331083
  17.2909274  46.7731044  59.5507911  19.3665957  43.9674017  56.1081767
  20.1892027  43.4934495  55.9860657  19.6104021  44.7464501  56.6080453
  18.0074192  46.9962275  46.4044669  18.7282554  47.3743528  45.9008386
  17.3839496  47.7151152  46.5079647  22.8229811  41.4353335  53.2344814
  23.1031565  40.7676524  53.8605240  23.6080418  41.6282431  52.7219477
  19.1952995  49.8723118  42.0740778  18.2884450  49.5756231  42.1503491
  19.4728976  49.5752936  41.2075064  22.7405609  43.4938054  49.8509316
  23.2936648  43.9133508  50.5099339  22.9775695  42.5673803  49.8932272
  17.9651780  46.7310053  42.2152757  18.8270944  47.0564951  42.4748574
  18.1502124  45.9441549  41.7025823   9.9819195  54.8132393  54.4932946
   9.2882667  54.3986346  53.9802900  10.7292186  54.8552929  53.8966365
  10.3977612  49.7066052  59.7508570  11.0436476  49.1965006  60.2395795
  10.1894763  50.4434733  60.3251995  18.9181223  43.9706096  45.5032466
  18.9059892  44.9147936  45.6600737  19.8104644  43.7876242  45.2091927
  22.7333342  40.5648873  49.7578403  21.9665738  40.0107360  49.9035085
  23.1444047  40.6370742  50.6192554  14.7375103  46.8533669  63.8483584
  15.6006565  46.4970473  64.0586908  14.1640514  46.5147563  64.5358988
  24.7964434  71.7849621  53.4188621  25.5885726  71.4440446  53.0034920
  25.0361084  71.8944596  54.3390774  32.8299561  73.9569397  45.8918865
  32.1787540  74.5423478  45.5052879  33.6243924  74.4875592  45.9513903
  26.7555188  71.0458534  46.2906000  27.5286064  70.4987521  46.1518876
  27.1080587  71.9102784  46.5020461  29.0921466  67.2051200  43.9224450
  29.3446986  66.6832722  43.1607913  28.1546025  67.0417346  44.0251133
  28.5350895  78.8240652  49.4593660  28.4574925  79.7748478  49.5382141
  27.9312539  78.4786525  50.1168587  30.8089264  74.1822805  48.1799200
  30.6734939  75.0274341  48.6084048  31.3499077  74.3842083  47.4165134
  24.2618662  71.6998243  48.7527125  24.7743182  72.4941494  48.9032690
  24.9141374  71.0024534  48.6860727  26.0713546  74.8164000  50.8349878
  26.2480175  75.7381964  50.6470862  26.8670380  74.5022419  51.2644258
  27.1944862  76.3342174  56.8360221  27.7452287  76.2059237  56.0637215
  26.3556338  76.6337063  56.4855114  30.5017346  69.5459504  41.6958237
  29.5944407  69.3148758  41.8949386  30.9988378  68.7497123  41.8832218
  33.4085425  78.2557011  44.6154923  32.7347123  78.5588708  45.2239881
  33.7951247  79.0586092  44.2660380  36.9124847  73.2578688  49.9873395
  36.4587174  72.4169598  50.0438585  36.2818813  73.8940087  50.3248175
  35.3557786  75.0955185  50.9223213  35.6480760  75.6560242  50.2035578
  35.8656406  75.3883746  51.6776372  30.3191411  75.8735536  52.0116666
  30.2767590  76.0996383  51.0825198  31.2354110  75.6398911  52.1602467
  28.4357212  72.7498565  51.8078629  29.2297810  72.2548885  51.6061204
  27.7248904  72.2216428  51.4446334  31.6076640  78.4236684  46.8302002
  31.7828395  77.9524727  47.6447625  30.9209428  79.0502450  47.0583263
  35.4992895  70.0465224  43.1502363  34.8822065  69.3212052  43.0535416
  35.0309383  70.8074585  42.8069437  26.1737725  81.5726046  53.6041862
  26.4134323  82.2044571  54.2820881  25.3306922  81.2214086  53.8907222
  30.6865587  77.3805169  56.0083366  30.6135758  78.1860140  56.5202671
  30.2442980  77.5797135  55.1831388  30.4755367  76.6176939  49.5186188
  29.6922888  77.1598619  49.6124413  31.1748112  77.1350919  49.9180429
  34.8681797  71.1843256  49.7358817  33.9338076  71.3044718  49.5663521
  35.0458466  70.2815722  49.4718827  36.3230580  73.3704396  47.2695003
  36.5990424  73.2560991  48.1788877  35.4535079  72.9721881  47.2307176
  32.9584644  77.6190747  50.9127817  33.1407038  76.8012403  51.3755569
  33.7817630  77.8358439  50.4752707  33.2926809  76.5458932  48.1742865
  33.8214576  76.0351387  47.5613027  33.5555029  76.2301462  49.0388398
  23.7943902  74.5622801  55.9178199  24.3797339  73.8166489  56.0506103
  23.5968740  74.8726758  56.8014863  26.6482557  77.5974049  50.9340641
  25.9792932  78.0820176  50.4504681  26.5095427  77.8443269  51.8484020
  18.3861557  67.1328402  54.6382642  18.4245656  66.5991992  55.4319760
  17.8801850  66.6063607  54.0193619  30.7887826  79.6317792  57.5323299
  31.3406134  79.7949414  58.2972385  31.1294019  80.2222230  56.8603324
  33.9256213  77.5799768  54.5186982  33.8007353  76.7789508  54.0097927
  34.5835304  78.0745961  54.0300951  32.9937555  75.1761504  52.3470884
  32.8462517  74.2478212  52.5278454  33.8191048  75.1981595  51.8627959
  36.5971677  75.9990063  53.4335757  37.5218224  75.7932924  53.2960208
  36.4286980  75.7506464  54.3425098  36.3866993  76.5175730  48.7897848
  36.5603870  75.9522153  48.0371700  36.8795884  77.3176625  48.6077338
  37.3742165  75.8342495  45.8894746  38.0693070  76.4549187  46.1082061
  37.7165315  74.9837846  46.1647124  39.2733588  73.2842200  47.4182077
  39.7984913  73.6229473  46.6931397  39.1855941  72.3489216  47.2345212
  30.9574249  79.3514184  51.7777330  30.5179239  78.8590562  52.4710187
  31.7082366  78.8087151  51.5369406  23.4366588  75.5425724  51.7801958
  24.2624608  75.2429496  51.4000602  23.0860640  74.7733347  52.2291747
  28.4048121  74.8952193  53.8499632  27.7828131  74.2322898  53.5501860
  29.0752988  74.9213325  53.1673280  21.6375193  73.4612051  52.7390892
  20.8007102  73.0334225  52.5574893  21.6098839  73.6544494  53.6761683
  27.9661628  73.4456116  47.3258092  28.1149749  74.1291580  46.6724765
  28.7728072  73.4261206  47.8407548  25.7214261  69.4721294  48.3319161
  25.4760303  68.5683624  48.5299372  25.8910176  69.4738444  47.3898639
  31.4657034  75.9404246  44.7969840  30.8931001  76.5594434  44.3440312
  32.0389827  76.4903608  45.3309762  34.6854294  76.2241397  45.9278422
  35.6184967  76.1586958  46.1311298  34.5977506  77.0597663  45.4692955
  37.3142310  75.5407267  42.8882370  37.2355942  75.2067131  43.7818128
  38.1351977  76.0329035  42.8873842  31.8503832  67.2765059  42.1385892
  32.7962937  67.1471267  42.2074310  31.4718077  66.5379721  42.6155321
  30.0346749  65.2015036  42.0740778  29.1278205  64.9048148  42.1503491
  30.3122730  64.9044854  41.2075064  20.8212950  70.1424310  54.4932946
  20.1276421  69.7278263  53.9802900  21.5685941  70.1844847  53.8966365
  25.3937070  72.1318719  56.4845575  26.3480324  72.1002662  56.4175506
  25.1949594  71.6709343  57.2995801  23.7487299  77.6738339  53.5015773
  23.6141767  76.9138740  52.9353771  23.3319361  78.3979239  53.0344562
  34.8846262  72.8575262  42.5092348  35.5882112  73.0625265  43.1250004
  34.1608911  73.4252024  42.7741432  26.9056425  78.5707656  53.7134215
  26.7888809  79.5153088  53.6112906  26.0848871  78.2681217  54.1020015
  36.7932959  73.2957792  44.5590808  37.6278563  72.8638990  44.3768283
  36.6317302  73.1239805  45.4867703  29.7574977  59.2998014  45.5032466
  29.7453647  60.2439854  45.6600737  30.6498399  59.1168159  45.2091927
  27.9310939  79.2235918  56.9290144  28.8338186  79.2559528  57.2456639
  27.7048309  78.2936369  56.9436480  29.6864541  77.9766904  53.5900222
  28.7360172  77.9768766  53.4764595  29.9897027  77.2299639  53.0736257
  42.2306941  83.7654871  54.5907510  41.8925452  83.6495935  53.7028044
  43.0996709  83.3646036  54.5708516  38.0893756  85.6190347  50.5804401
  37.5258622  85.5280284  49.8120688  37.9746152  84.7990252  51.0606893
  35.6358188  87.1141539  53.4188621  36.4279480  86.7732363  53.0034920
  35.8754839  87.2236514  54.3390774  43.6693315  89.2861315  45.8918865
  43.0181295  89.8715395  45.5052879  44.4637678  89.8167510  45.9513903
  37.5948942  86.3750452  46.2906000  38.3679818  85.8279439  46.1518876
  37.9474341  87.2394701  46.5020461  39.4333985  87.7026834  59.4972899
  39.1423851  88.6072465  59.3819565  40.0690969  87.7443362  60.2116969
  40.3590192  85.0803683  56.0874259  40.9553764  84.8559705  55.3731222
  40.4165163  84.3388428  56.6899707  39.9315220  82.5343118  43.9224450
  40.1840741  82.0124639  43.1607913  38.9939779  82.3709264  44.0251133
  44.9758503  81.5378896  51.7299193  45.7621592  81.1198320  51.3789610
  45.2397207  82.4424989  51.8980841  39.6511509  84.4371224  46.1248825
  39.5347767  83.7616127  46.7929909  39.7613769  83.9503598  45.3080978
  41.9943050  83.8981371  49.8295514  41.6301257  83.3711992  50.5408435
  42.8510166  83.5079840  49.6561999  41.6348537  78.9271271  44.8256862
  41.8022939  79.7951507  45.1927333  41.4445706  79.0898553  43.9018152
  37.8436351  83.8402047  52.5259397  36.9186848  83.7078261  52.7337089
  38.0920765  84.6196266  53.0229340  41.6137758  81.3828928  45.8103529
  41.4937383  81.8285979  46.6489009  40.9190346  81.7314246  45.2517067
  35.2045163  83.4835320  53.3603186  35.3337544  83.7369799  54.2742598
  34.5242614  84.0763028  53.0407841  39.3744650  94.1532570  49.4593660
  39.2968679  95.1040395  49.5382141  38.7706293  93.8078443  50.1168587
  45.9192406  86.8376220  54.0297445  45.2901269  87.0021934  53.3273513
  45.5318068  87.2517830  54.8008409  41.4720368  86.5750628  51.2947530
  41.9358714  86.8538331  50.5052152  41.2077166  85.6734073  51.1120621
  38.3644449  86.1222110  54.2327293  38.9345806  86.5509378  53.5944778
  38.9552561  85.8404694  54.9311479  40.4089254  82.6973780  48.1037095
  41.1113297  83.1494824  48.5711021  40.0769883  82.0557599  48.7316988
  34.1514588  80.9557333  53.4054229  33.3613642  81.2114862  52.9294339
  34.6425835  81.7705671  53.5106269  36.1029333  81.3201912  50.3637705
  35.3060497  81.4320607  50.8821201  35.8754926  81.6588565  49.4978596
  41.9335001  87.8446616  58.3120220  41.9979434  88.3067023  59.1478392
  41.2245925  87.2143981  58.4402530  32.4352291  81.2087824  55.8369219
  32.6860329  82.0934834  56.1026795  32.9711839  81.0292425  55.0644311
  56.2584391  84.6401321  52.5044481  55.5048099  84.0708719  52.3488485
  56.3931932  84.6063985  53.4515116  41.6483019  89.5114723  48.1799200
  41.5128693  90.3566259  48.6084048  42.1892831  89.7134001  47.4165134
  35.1012416  87.0290161  48.7527125  35.6136937  87.8233411  48.9032690
  35.7535129  86.3316452  48.6860727  36.9107301  90.1455917  50.8349878
  37.0873929  91.0673882  50.6470862  37.7064134  89.8314337  51.2644258
  43.2751495  90.1338290  62.3099542  42.8315349  89.3474668  61.9920447
  43.9368709  90.3217440  61.6443433  38.0338616  91.6634091  56.8360221
  38.5846041  91.5351155  56.0637215  37.1950092  91.9628980  56.4855114
  45.3732733  90.4141090  60.3380944  45.3551209  91.2349971  59.8461213
  46.2952653  90.2895165  60.5631085  41.8305787  87.9285219  61.1804452
  42.3634124  87.1673507  60.9503760  41.3019868  87.6358871  61.9228606
  33.0661333  85.3578815  49.5286696  33.9036555  85.7675824  49.3120404
  33.2439601  84.4178258  49.4986890  42.5472876  77.8703597  50.2755767
  41.6914472  77.4810447  50.0961406  42.9599828  77.9495558  49.4155553
  43.1958500  87.0571212  48.6923264  42.6679862  86.3223971  48.3796501
  42.6946003  87.8345888  48.4463232  37.9277228  77.7190878  51.0529875
  38.5020980  77.4966059  50.3203068  38.5148210  77.7879572  51.8058477
  38.2546815  79.7495339  45.0725761  37.4184127  80.0870025  45.3935035
  38.1151584  79.6144319  44.1352898  41.3411100  84.8751422  41.6958237
  40.4338162  84.6440675  41.8949386  41.8382132  84.0789041  41.8832218
  44.2479179  93.5848929  44.6154923  43.5740878  93.8880626  45.2239881
  44.6345001  94.3878009  44.2660380  43.4637636  81.0814060  54.1052592
  42.5460197  81.3029007  53.9474281  43.8797779  81.1560371  53.2464300
  44.2472683  82.4805476  49.2355273  44.9944502  82.9926873  48.9262395
  44.5164273  82.1589529  50.0959666  42.5199334  84.9764017  46.2182227
  41.6110553  84.6923049  46.3154697  42.5494417  85.3963095  45.3585534
  47.7518601  88.5870606  49.9873395  47.2980928  87.7461516  50.0438585
  47.1212568  89.2232005  50.3248175  46.6951521  79.5162592  51.2174062
  45.9574277  79.0039978  51.5484305  46.9478294  79.0762974  50.4057339
  46.1951540  90.4247103  50.9223213  46.4874515  90.9852160  50.2035578
  46.7050161  90.7175664  51.6776372  33.0887504  82.6969531  50.1997429
  32.8911904  82.1038891  49.4748496  32.5334168  82.3921741  50.9173368
  41.0684228  82.5892637  52.3192022  41.1232837  81.6366474  52.2434499
  40.2575430  82.7452076  52.8033321  42.2175421  86.5172760  43.5570306
  41.7794851  85.8008619  43.0975943  42.9585862  86.7448875  42.9955397
  39.0076588  81.2069697  50.0782401  38.1944453  81.5063868  50.4847593
  39.5035582  80.8125386  50.7956884  41.1585165  91.2027454  52.0116666
  41.1161344  91.4288300  51.0825198  42.0747864  90.9690829  52.1602467
  39.2750966  88.0790483  51.8078629  40.0691565  87.5840803  51.6061204
  38.5642659  87.5508346  51.4446334  44.0945811  90.4608578  56.1590996
  44.1482833  91.0299515  56.9268712  43.2260592  90.6310463  55.7945033
  35.5833730  82.2233565  47.8838381  34.6531318  82.1618020  48.1008343
  35.6791202  81.7009517  47.0875023  35.5019279  78.7488377  50.4716623
  35.7626096  79.6633711  50.3625783  36.3236451  78.2812820  50.6213236
  41.8522242  88.6519505  55.4876466  41.7133328  88.2838289  56.3602404
  41.0636838  89.1667144  55.3160424  42.4470394  93.7528601  46.8302002
  42.6222150  93.2816645  47.6447625  41.7603182  94.3794368  47.0583263
  43.4027457  88.0301108  52.8765304  43.0677290  87.9901878  53.7722953
  42.9031403  87.3645824  52.4035714  40.0054002  83.1488697  57.8901564
  40.7153621  82.5081889  57.8488183  39.9623310  83.4001592  58.8127745
  37.0131480  96.9017964  53.6041862  37.2528078  97.5336488  54.2820881
  36.1700676  96.5506004  53.8907222  38.1285195  79.5942566  42.2723667
  37.2514661  79.4731367  41.9085914  38.6042948  78.8028645  42.0202556
  29.6487335  84.3819726  52.3665175  30.3358375  84.0681456  51.7786190
  29.4935464  85.2861091  52.0932426  41.5259341  92.7097087  56.0083366
  41.4529513  93.5152058  56.5202671  41.0836734  92.9089052  55.1831388
  41.3149121  91.9468857  49.5186188  40.5316643  92.4890537  49.6124413
  42.0141866  92.4642836  49.9180429  44.6245771  77.7563486  52.1620393
  45.1214471  77.0033448  51.8421464  43.8532753  77.7927803  51.5963603
  43.9858025  92.6083921  58.1641525  44.6985997  93.2431385  58.0917427
  43.4948054  92.7047787  57.3481527  45.7075552  86.5135173  49.7358817
  44.7731831  86.6336636  49.5663521  45.8852220  85.6107640  49.4718827
  41.2080740  79.8980869  51.8892078  40.8378527  79.3451909  52.5772984
  41.7039832  79.2939003  51.3367078  39.0369938  90.3578364  58.9847096
  39.7379398  90.9914847  59.1376490  38.5665053  90.6993096  58.2242735
  43.7978398  92.9482665  50.9127817  43.9800793  92.1304321  51.3755569
  44.6211384  93.1650357  50.4752707  44.1320564  91.8750850  48.1742865
  44.6608330  91.3643304  47.5613027  44.3948783  91.5593380  49.0388398
  34.6337656  89.8914719  55.9178199  35.2191093  89.1458407  56.0506103
  34.4362495  90.2018676  56.8014863  37.4876312  92.9265967  50.9340641
  36.8186687  93.4112094  50.4504681  37.3489181  93.1735187  51.8484020
  29.2255311  82.4620319  54.6382642  29.2639411  81.9283910  55.4319760
  28.7195604  81.9355525  54.0193619  41.6281580  94.9609710  57.5323299
  42.1799888  95.1241332  58.2972385  41.9687774  95.5514148  56.8603324
  46.4792455  89.7870968  63.3871954  47.0232359  90.4000926  62.8926909
  45.8979299  90.3450546  63.9038967  32.8563889  81.1884421  47.7136573
  33.1517330  80.2795100  47.6603627  31.9551925  81.1672161  47.3917575
  44.7649968  92.9091686  54.5186982  44.6401107  92.1081425  54.0097927
  45.4229059  93.4037879  54.0300951  36.3858136  79.2640418  53.6964122
  35.6644722  79.8776386  53.5571595  37.1751392  79.7998183  53.6180768
  46.8284876  90.7100706  56.1466532  45.8815211  90.5906057  56.0744858
  47.1767649  89.8223204  56.2292793  34.5851730  78.8698519  47.8375898
  34.2564437  77.9895898  47.6551004  34.9391101  78.8146188  48.7252288
  43.8331309  90.5053422  52.3470884  43.6856272  89.5770129  52.5278454
  44.6584803  90.5273513  51.8627959  37.6993554  79.1571489  48.2051376
  38.0389626  79.6857410  47.4829984  38.1465674  79.4951895  48.9809943
  47.4365431  91.3281981  53.4335757  48.3611979  91.1224842  53.2960208
  47.2680734  91.0798382  54.3425098  39.6861701  77.6546111  46.4044669
  40.4070063  78.0327363  45.9008386  39.0627005  78.3734987  46.5079647
  43.8292824  78.3591260  47.3403001  44.0456438  79.2415897  47.0391829
  43.3486891  77.9677473  46.6108643  38.5692045  81.3176973  53.9173746
  38.4236626  81.6317276  54.8098027  38.0917249  81.9361873  53.3644644
  47.2260747  91.8467648  48.7897848  47.3997625  91.2814071  48.0371700
  47.7189639  92.6468543  48.6077338  33.0437707  83.8582317  56.8561407
  32.4991175  84.6342125  56.9881681  33.9217057  84.2053122  56.6980528
  39.8325324  77.1893901  49.2342205  39.9541235  76.2610547  49.4333093
  39.5427366  77.2032587  48.3220521  33.8303729  82.9852213  59.7491564
  33.0885465  83.1334849  60.3356194  33.5096473  83.2460479  58.8858313
  41.7747392  92.5268192  59.5471954  42.0834518  92.2817338  60.4194653
  42.5722874  92.7314830  59.0590824  41.7968004  94.6806101  51.7777330
  41.3572994  94.1882480  52.4710187  42.5476121  94.1379069  51.5369406
  34.2760343  90.8717642  51.7801958  35.1018363  90.5721414  51.4000602
  33.9254395  90.1025265  52.2291747  39.2441876  90.2244110  53.8499632
  38.6221885  89.5614815  53.5501860  39.9146743  90.2505242  53.1673280
  32.4768948  88.7903969  52.7390892  31.6400856  88.3626143  52.5574893
  32.4492593  88.9836412  53.6761683  38.8055383  88.7748034  47.3258092
  38.9543503  89.4583498  46.6724765  39.6121826  88.7553124  47.8407548
  36.5608016  84.8013211  48.3319161  36.3154058  83.8975541  48.5299372
  36.7303930  84.8030362  47.3898639  35.8303663  80.5341569  45.8305323
  35.1372908  80.6085924  45.1745359  35.5855415  79.7701913  46.3526840
  42.3050788  91.2696164  44.7969840  41.7324755  91.8886351  44.3440312
  42.8783582  91.8195526  45.3309762  42.6897587  82.6056977  42.1385892
  43.6356691  82.4763185  42.2074310  42.3111832  81.8671639  42.6155321
  56.6690806  84.7976931  55.2364725  57.3994194  84.5362219  55.7972428
  56.0597751  84.0605653  55.2766793  40.8740504  80.5306953  42.0740778
  39.9671959  80.2340066  42.1503491  41.1516485  80.2336771  41.2075064
  31.7918444  81.8513317  52.5239824  31.4721229  80.9978625  52.2314198
  31.2451872  82.0661895  53.2797791  35.5698352  84.5675758  56.2409331
  35.7884362  85.4992865  56.2597364  35.9824126  84.2083732  57.0264134
  42.4902570  75.0743843  48.2285019  41.6803298  74.7290928  48.6040265
  43.1786987  74.7651387  48.8172630  39.6439289  77.3893889  42.2152757
  40.5058453  77.7148787  42.4748574  39.8289633  76.6025384  41.7025823
  31.6606704  85.4716228  54.4932946  30.9670176  85.0570181  53.9802900
  32.4079695  85.5136765  53.8966365  33.5743447  85.4034482  52.3698960
  33.5514135  85.5022169  51.4180844  33.8844083  86.2499633  52.6916127
  36.2330825  87.4610637  56.4845575  37.1874078  87.4294579  56.4175506
  36.0343348  87.0001261  57.2995801  36.8230207  86.0311753  59.0516373
  37.6423096  86.5255832  59.0751210  37.0967015  85.1143721  59.0233940
  34.5881053  93.0030256  53.5015773  34.4535521  92.2430657  52.9353771
  34.1713116  93.7271156  53.0344562  37.7450179  93.8999574  53.7134215
  37.6282564  94.8445006  53.6112906  36.9242626  93.5973135  54.1020015
  32.0765121  80.3649887  59.7508570  32.7223985  79.8548841  60.2395795
  31.8682272  81.1018569  60.3251995  44.6018513  87.4330734  65.2500710
  45.4709673  87.6071387  64.8887345  44.1225265  88.2525151  65.1276440
  40.5968732  74.6289932  45.5032466  40.5847401  75.5731771  45.6600737
  41.4892153  74.4460077  45.2091927  38.7704693  94.5527835  56.9290144
  39.6731940  94.5851446  57.2456639  38.5442064  93.6228286  56.9436480
  40.5258296  93.3058822  53.5900222  39.5753927  93.3060684  53.4764595
  40.8290782  92.5591557  53.0736257  56.2610989  99.1419360  54.6545985
  56.8989399  99.0226108  53.9509325  56.1431832 100.0900204  54.7133937
  53.0700695  99.0946788  54.5907510  52.7319207  98.9787853  53.7028044
  53.9390463  98.6937954  54.5708516  48.9287511 100.9482265  50.5804401
  48.3652376 100.8572202  49.8120688  48.8139906 100.1282169  51.0606893
  53.5520478 100.2481640  60.5493715  53.5409119  99.8534438  59.6774219
  53.7141118  99.5147713  61.1427487  46.4751943 102.4433456  53.4188621
  47.2673235 102.1024281  53.0034920  46.7148593 102.5528431  54.3390774
  54.5087070 104.6153233  45.8918865  53.8575049 105.2007313  45.5052879
  55.3031432 105.1459427  45.9513903  48.4342697 101.7042370  46.2906000
  49.2073573 101.1571357  46.1518876  48.7868096 102.5686619  46.5020461
  50.2727739 103.0318752  59.4972899  49.9817605 103.9364383  59.3819565
  50.9084724 103.0735280  60.2116969  51.1983946 100.4095600  56.0874259
  51.7947519 100.1851623  55.3731222  51.2558918  99.6680346  56.6899707
  50.7708975  97.8635036  43.9224450  51.0234495  97.3416557  43.1607913
  49.8333534  97.7001181  44.0251133  55.8152257  96.8670814  51.7299193
  56.6015347  96.4490237  51.3789610  56.0790962  97.7716906  51.8980841
  55.9862335 102.3043664  46.4287850  55.3508168 102.3778291  47.1408754
  55.6559741 102.8937263  45.7506929  61.2160685  96.8046047  52.6332171
  61.9485857  96.2345264  52.8670001  60.4600040  96.4167648  53.0738677
  50.4905263  99.7663142  46.1248825  50.3741521  99.0908045  46.7929909
  50.6007523  99.2795516  45.3080978  52.8336804  99.2273289  49.8295514
  52.4695012  98.7003910  50.5408435  53.6903920  98.8371758  49.6561999
  58.7386105  90.5167621  57.0926780  58.4069430  91.3863032  56.8687995
  58.1431718  90.2003905  57.7720810  52.4742291  94.2563189  44.8256862
  52.6416694  95.1243425  45.1927333  52.2839460  94.4190470  43.9018152
  55.2317624 102.7180167  56.4922693  54.9318348 103.6205206  56.3838500
  54.8868684 102.4512351  57.3443846  48.6830106  99.1693964  52.5259397
  47.7580602  99.0370178  52.7337089  48.9314519  99.9488184  53.0229340
  58.6314768  95.2362708  54.1720130  57.7231646  95.1678116  53.8778891
  58.5802364  95.7134653  55.0001956  52.4531512  96.7120846  45.8103529
  52.3331137  97.1577897  46.6489009  51.7584101  97.0606164  45.2517067
  46.0438917  98.8127238  53.3603186  46.1731298  99.0661717  54.2742598
  45.3636368  99.4054946  53.0407841  52.7055634  96.6552353  62.1155027
  51.9288968  97.2146273  62.1057892  53.3446197  97.1409136  62.6369897
  60.4976415  93.4379146  55.9498004  59.8550795  93.7311679  55.3037799
  59.9931343  93.3232066  56.7551201  58.1516578  97.1842319  46.6383863
  59.0634434  97.4169706  46.4631561  57.6426225  97.7679363  46.0758942
  50.9602006  99.4637807  61.6772994  51.7016691 100.0022851  61.4007818
  50.2538992 100.0904095  61.8344546  56.4357346 101.6066947  60.2745156
  56.8440702 101.1649358  59.5299788  55.7134608 101.0319575  60.5279349
  52.7888416  96.5439554  57.6478713  53.6349611  96.9678967  57.7913362
  52.7287054  95.8873178  58.3417276  56.7586161 102.1668138  54.0297445
  56.1295023 102.3313852  53.3273513  56.3711823 102.5809747  54.8008409
  60.6375393 103.1022576  51.3841808  59.9526431 103.4821477  50.8338842
  60.7219242 103.7117902  52.1173756  55.9387861  94.2043922  59.3059886
  55.6948793  94.9585983  58.7694162  56.2147792  94.5829270  60.1407133
  57.8926324 100.7482535  57.9837152  58.1043219 101.3914294  57.3071533
  57.8456072  99.9144851  57.5159082  55.4952553  93.3600355  54.8873724
  54.6337032  93.6581609  55.1790462  55.5214988  93.5770754  53.9554757
  52.3114123 101.9042546  51.2947530  52.7752468 102.1830249  50.5052152
  52.0470921 101.0025990  51.1120621  49.2038204 101.4514027  54.2327293
  49.7739561 101.8801296  53.5944778  49.7946315 101.1696612  54.9311479
  51.2483009  98.0265698  48.1037095  51.9507052  98.4786742  48.5711021
  50.9163637  97.3849517  48.7316988  49.6963370  96.6177455  62.4788304
  49.0662031  97.2993736  62.7123701  49.5899458  96.5060536  61.5341443
  44.9908343  96.2849251  53.4054229  44.2007397  96.5406779  52.9294339
  45.4819590  97.0997589  53.5106269  59.0072152 103.6254490  56.1559509
  59.8289596 103.2234677  55.8742191  59.0034555 103.5222724  57.1075625
  46.9423088  96.6493830  50.3637705  46.1454251  96.7612524  50.8821201
  46.7148680  96.9880482  49.4978596  52.7728756 103.1738533  58.3120220
  52.8373188 103.6358941  59.1478392  52.0639679 102.5435898  58.4402530
  43.2746046  96.5379741  55.8369219  43.5254084  97.4226751  56.1026795
  43.8105594  96.3584343  55.0644311  67.0978145  99.9693238  52.5044481
  66.3441854  99.4000637  52.3488485  67.2325686  99.9355903  53.4515116
  52.4876773 104.8406641  48.1799200  52.3522448 105.6858177  48.6084048
  53.0286586 105.0425918  47.4165134  48.9744113  90.9198221  64.8413555
  48.5811058  90.3664419  65.5161200  49.7910253  91.2308799  65.2320073
  45.9406171 102.3582079  48.7527125  46.4530691 103.1525329  48.9032690
  46.5928883 101.6608369  48.6860727  47.7501055 105.4747835  50.8349878
  47.9267684 106.3965800  50.6470862  48.5457889 105.1606254  51.2644258
  51.8912074  92.3356100  62.4333812  52.6321787  92.9363253  62.3538274
  52.1229997  91.5933738  61.8751855  47.0353412  97.5212467  60.7112042
  46.9206927  96.6197724  61.0119141  46.1797930  97.7676164  60.3596858
  54.1145250 105.4630207  62.3099542  53.6709104 104.6766586  61.9920447
  54.7762463 105.6509358  61.6443433  48.8732371 106.9926009  56.8360221
  49.4239796 106.8643072  56.0637215  48.0343847 107.2920898  56.4855114
  56.2126488 105.7433007  60.3380944  56.1944963 106.5641888  59.8461213
  57.1346408 105.6187082  60.5631085  52.6699542 103.2577137  61.1804452
  53.2027879 102.4965425  60.9503760  52.1413623 102.9650789  61.9228606
  55.8369237  88.3637203  56.7098094  55.4933506  89.2538844  56.6337204
  56.2048199  88.1738860  55.8467679  43.9055087 100.6870733  49.5286696
  44.7430309 101.0967741  49.3120404  44.0833355  99.7470175  49.4986890
  55.8019519  98.3545814  45.2170529  55.2866143  99.1250418  45.4558916
  55.5296828  97.6810950  45.8403590  53.3866631  93.1995515  50.2755767
  52.5308227  92.8102365  50.0961406  53.7993582  93.2787475  49.4155553
  54.9165777  90.7341858  54.6747327  54.4130573  90.6971993  53.8615132
  55.2096384  91.6434601  54.7343984  51.1608663  90.8180588  53.6813509
  52.0261660  90.6223396  53.3219398  51.2286172  90.5890939  54.6082865
  60.7753794 101.1078168  47.1523702  59.9983236 100.7689328  46.7078864
  61.4545275 101.1130792  46.4778667  55.5905823  96.2272906  47.0430310
  55.2855958  96.5419055  47.8940453  56.5436265  96.3054326  47.0857643
  54.0352255 102.3863129  48.6923264  53.5073616 101.6515889  48.3796501
  53.5339757 103.1637806  48.4463232  59.0145101 100.5812150  53.8090310
  58.3568775 101.2711411  53.8970439  59.8185500 100.9708582  54.1524297
  48.7670982  93.0482795  51.0529875  49.3414734  92.8257977  50.3203068
  49.3541965  93.1171490  51.8058477  57.8250559  98.9356522  51.8594252
  58.3382441  99.5686514  52.3615962  58.4751783  98.3357718  51.4937612
  49.0940569  95.0787256  45.0725761  48.2577881  95.4161943  45.3935035
  48.9545339  94.9436236  44.1352898  51.0693650  89.9224044  49.7804945
  50.4158062  89.6073062  49.1561560  51.0274124  89.2999785  50.5064768
  52.1804855 100.2043339  41.6958237  51.2731916  99.9732593  41.8949386
  52.6775887  99.4080959  41.8832218  55.0872934 108.9140847  44.6154923
  54.4134632 109.2172543  45.2239881  55.4738756 109.7169927  44.2660380
  54.3031390  96.4105978  54.1052592  53.3853952  96.6320925  53.9474281
  54.7191534  96.4852288  53.2464300  55.0866438  97.8097394  49.2355273
  55.8338257  98.3218791  48.9262395  55.3558028  97.4881446  50.0959666
  53.3593088 100.3055934  46.2182227  52.4504307 100.0214967  46.3154697
  53.3888172 100.7255013  45.3585534  58.5912356 103.9162524  49.9873395
  58.1374683 103.0753434  50.0438585  57.9606322 104.5523922  50.3248175
  57.5345275  94.8454510  51.2174062  56.7968032  94.3331896  51.5484305
  57.7872049  94.4054891  50.4057339  57.0345295 105.7539021  50.9223213
  57.3268269 106.3144078  50.2035578  57.5443915 106.0467582  51.6776372
  57.6356902  87.6230762  51.8115831  57.9415779  86.7628125  51.5241746
  58.3609507  88.2148382  51.6114825  43.9281259  98.0261448  50.1997429
  43.7305658  97.4330809  49.4748496  43.3727923  97.7213659  50.9173368
  51.9077982  97.9184555  52.3192022  51.9626592  96.9658391  52.2434499
  51.0969184  98.0743994  52.8033321  53.0569176 101.8464678  43.5570306
  52.6188606 101.1300537  43.0975943  53.7979617 102.0740793  42.9955397
  49.8470342  96.5361615  50.0782401  49.0338208  96.8355785  50.4847593
  50.3429336  96.1417303  50.7956884  51.9978920 106.5319372  52.0116666
  51.9555099 106.7580218  51.0825198  52.9141619 106.2982746  52.1602467
  55.4444554  97.0003439  58.9097295  55.7993941  97.2274912  59.7691761
  56.0916685  97.3321816  58.2874550  61.1742291 100.1221875  49.6146624
  61.0360189 100.3123471  48.6867813  60.8178510 100.8841258  50.0714675
  49.3384417  94.1079970  55.6943636  49.9783796  93.9668729  54.9966600
  48.5061947  93.8214484  55.3182238  61.2011670 102.1898402  54.6257896
  61.6348177 102.0973691  55.4740950  61.9143251 102.1655902  53.9877912
  50.1144721 103.4082401  51.8078629  50.9085319 102.9132721  51.6061204
  49.4036413 102.8800264  51.4446334  54.9339565 105.7900496  56.1590996
  54.9876588 106.3591432  56.9268712  54.0654347 105.9602381  55.7945033
  46.4227484  97.5525482  47.8838381  45.4925072  97.4909938  48.1008343
  46.5184956  97.0301435  47.0875023  46.3413033  94.0780295  50.4716623
  46.6019851  94.9925628  50.3625783  47.1630206  93.6104738  50.6213236
  47.8137959  95.4918052  57.6415448  48.4861012  95.2835414  56.9928096
  46.9867745  95.2940138  57.2020680  62.0627220 102.2322103  57.1590781
  62.2563110 103.1367913  57.4050056  61.9627838 101.7729522  57.9929366
  53.7163531  92.1179993  59.6581108  53.0691446  92.8169943  59.5645585
  54.4864546  92.5516137  60.0257357  57.1242329 102.3828845  62.7331662
  56.9727835 102.1539397  61.8161745  57.1147008 103.3399447  62.7463007
  53.8927665  99.9560758  57.7177928  54.8219725 100.1071918  57.5446895
  53.4718695 100.0444779  56.8626575  52.6915997 103.9811423  55.4876466
  52.5527082 103.6130207  56.3602404  51.9030593 104.4959062  55.3160424
  54.2421212 103.3593025  52.8765304  53.9071045 103.3193795  53.7722953
  53.7425158 102.6937741  52.4035714  48.2165456  98.7660655  58.4017885
  48.0785254  98.0340894  59.0029424  49.1270379  98.6769555  58.1202072
  57.1780404 100.7049060  43.1502363  56.5609574  99.9795888  43.0535416
  56.7096892 101.4658420  42.8069437  50.8447757  98.4780615  57.8901564
  51.5547375  97.8373807  57.8488183  50.8017065  98.7293509  58.8127745
  58.8334535 105.4147968  60.8108144  58.7747081 104.7307188  60.1438727
  59.2354054 106.1566958  60.3588770  49.5576691  95.4645833  59.7097204
  49.0214048  95.0136571  60.3618800  48.9693399  95.5991741  58.9667668
  48.9678949  94.9234484  42.2723667  48.0908416  94.8023285  41.9085914
  49.4436703  94.1320562  42.0202556  58.8351942 103.3787552  59.0422123
  57.9478721 103.0413474  59.1648522  59.4050494 102.6470583  59.2790889
  40.4881090  99.7111644  52.3665175  41.1752129  99.3973374  51.7786190
  40.3329218 100.6153008  52.0932426  45.2915812  94.6001840  56.7950198
  45.2074000  93.9927510  56.0600608  44.4698518  95.0910859  56.7959695
  52.3653096 108.0389004  56.0083366  52.2923267 108.8443976  56.5202671
  51.9230489 108.2380970  55.1831388  52.1542875 107.2760774  49.5186188
  51.3710397 107.8182454  49.6124413  52.8535621 107.7934754  49.9180429
  55.4639526  93.0855404  52.1620393  55.9608225  92.3325366  51.8421464
  54.6926507  93.1219720  51.5963603  63.3169283  98.7895769  53.8038685
  63.3059159  99.6720485  53.4332618  62.4486662  98.4367320  53.6093222
  54.8251779 107.9375838  58.1641525  55.5379752 108.5723303  58.0917427
  54.3341808 108.0339704  57.3481527  56.5469306 101.8427091  49.7358817
  55.6125585 101.9628553  49.5663521  56.7245975 100.9399558  49.4718827
  52.0474494  95.2272787  51.8892078  51.6772282  94.6743827  52.5772984
  52.5433587  94.6230920  51.3367078  59.9341858  97.6844410  50.2708851
  60.4002310  98.5172402  50.1969154  60.3849358  97.2189392  50.9754109
  49.8763693 105.6870282  58.9847096  50.5773152 106.3206765  59.1376490
  49.4058808 106.0285013  58.2242735  58.0018089 104.0288232  47.2695003
  58.2777933 103.9144826  48.1788877  57.1322587 103.6305716  47.2307176
  57.9058520  90.0524997  54.3099752  56.9921600  90.2829224  54.4781959
  58.3351622  90.1363441  55.1613785  57.6764979  98.2414889  56.8099646
  57.0236429  98.4890797  56.1552099  58.0545359  97.4279027  56.4762124
  54.6372153 108.2774582  50.9127817  54.8194547 107.4596238  51.3755569
  55.4605139 108.4942275  50.4752707  54.9714318 107.2042768  48.1742865
  55.5002085 106.6935222  47.5613027  55.2342538 106.8885298  49.0388398
  53.7252552  98.9834700  63.2965683  53.0493189  98.8828830  63.9668059
  54.5480186  98.8273914  63.7601681  45.4731411 105.2206637  55.9178199
  46.0584848 104.4750325  56.0506103  45.2756249 105.5310594  56.8014863
  40.0649066  97.7912237  54.6382642  40.1033165  97.2575828  55.4319760
  39.5589359  97.2647443  54.0193619  47.4439828  92.6376778  58.1345184
  47.5081155  93.4991608  57.7222582  47.3806948  92.0250779  57.4017543
  46.9192101  94.7099910  61.7818218  47.5464139  94.3276987  62.3955743
  46.0620019  94.4914112  62.1473911  57.3186209 105.1162885  63.3871954
  57.8626113 105.7292844  62.8926909  56.7373054 105.6742464  63.9038967
  43.6957643  96.5176339  47.7136573  43.9911084  95.6087018  47.6603627
  42.7945679  96.4964079  47.3917575  55.6043722 108.2383603  54.5186982
  55.4794862 107.4373343  54.0097927  56.2622813 108.7329797  54.0300951
  47.2251890  94.5932336  53.6964122  46.5038476  95.2068303  53.5571595
  48.0145146  95.1290101  53.6180768  57.6678630 106.0392623  56.1466532
  56.7208966 105.9197975  56.0744858  58.0161404 105.1515121  56.2292793
  50.0278204  91.9286762  59.9704774  50.5512606  92.1749059  60.7331083
  49.8090537  92.7606797  59.5507911  45.4245485  94.1990437  47.8375898
  45.0958191  93.3187816  47.6551004  45.7784856  94.1438106  48.7252288
  54.6725064 105.8345340  52.3470884  54.5250026 104.9062047  52.5278454
  55.4978557 105.8565430  51.8627959  48.5387308  94.4863407  48.2051376
  48.8783381  95.0149328  47.4829984  48.9859429  94.8243813  48.9809943
  58.2759186 106.6573898  53.4335757  59.2005733 106.4516760  53.2960208
  58.1074489 106.4090299  54.3425098  51.2330749  92.8700457  57.6554444
  50.8927569  92.0708270  58.0575124  50.5269755  93.1702168  57.0831277
  51.8847221  89.9549770  56.1081767  52.7073290  89.4810248  55.9860657
  52.1285284  90.7340254  56.6080453  50.5255455  92.9838028  46.4044669
  51.2463818  93.3619281  45.9008386  49.9020759  93.7026905  46.5079647
  54.6686578  93.6883177  47.3403001  54.8850192  94.5707815  47.0391829
  54.1880645  93.2969391  46.6108643  49.4085799  96.6468890  53.9173746
  49.2630380  96.9609193  54.8098027  48.9311003  97.2653791  53.3644644
  51.2682182  93.6371438  53.9654635  51.2543751  92.7412532  53.6286933
  51.9854610  93.6442102  54.5992921  53.1208313  94.0708779  56.0107763
  52.8626091  94.9925849  56.0092093  52.5893353  93.6739213  56.7008227
  58.0654502 107.1759566  48.7897848  58.2391379 106.6105988  48.0371700
  58.5583393 107.9760461  48.6077338  43.8831462  99.1874235  56.8561407
  43.3384930  99.9634043  56.9881681  44.7610811  99.5345039  56.6980528
  50.6719078  92.5185819  49.2342205  50.7934989  91.5902465  49.4333093
  50.3821121  92.5324505  48.3220521  53.5410269  90.2040729  52.3708925
  53.5631965  90.2680062  51.4160905  53.9578328  89.3645238  52.5649431
  63.9193893  99.9395989  50.4088148  64.3625039  99.1903314  50.0107271
  63.0420403  99.9306125  50.0261880  59.0529674 106.4926330  45.8894746
  59.7480579 107.1133023  46.1082061  59.3952824 105.6421681  46.1647124
  44.6697483  98.3144131  59.7491564  43.9279220  98.4626766  60.3356194
  44.3490228  98.5752397  58.8858313  60.9521097 103.9426036  47.4182077
  61.4772422 104.2813308  46.6931397  60.8643450 103.0073051  47.2345212
  52.6141146 107.8560109  59.5471954  52.9228273 107.6109256  60.4194653
  53.4116628 108.0606748  59.0590824  45.1154097 106.2009560  51.7801958
  45.9412117 105.9013332  51.4000602  44.7648149 105.4317182  52.2291747
  50.0835630 105.5536028  53.8499632  49.4615640 104.8906733  53.5501860
  50.7540497 105.5797160  53.1673280  43.3162702 104.1195886  52.7390892
  42.4794611 103.6918061  52.5574893  43.2886348 104.3128330  53.6761683
  50.1560158  94.0317816  63.4432138  50.2048313  94.9079939  63.0609908
  50.6982672  93.4895209  62.8703781  60.6415003 104.5758939  62.7233275
  59.8510547 104.5583078  62.1837774  60.4048358 105.1147233  63.4782312
  60.7612879 101.4251406  60.0366004  60.8110883 101.2601413  60.9781526
  60.6526802 100.5578665  59.6463884  49.6449137 104.1039951  47.3258092
  49.7937258 104.7875416  46.6724765  50.4515581 104.0845041  47.8407548
  58.0516641  97.4082334  61.3525310  58.9526504  97.2688799  61.0609308
  58.1264615  97.5736789  62.2923488  52.3859446  94.7849188  60.1978497
  51.5162756  95.0782755  59.9261085  52.6218927  95.3689633  60.9185760
  62.2631075 103.8448347  60.2808025  61.9715884 104.2078328  61.1171486
  61.6503207 103.1315355  60.1021357  63.4626758 101.4101227  52.8010595
  64.2973649 101.8491031  52.9648156  63.5985886 100.9339880  51.9818841
  60.5118264  98.9680962  58.7488083  60.9872385  99.1608608  57.9406934
  59.5883829  99.0240148  58.5031467  47.4001770 100.1305129  48.3319161
  47.1547812  99.2267459  48.5299372  47.5697685 100.1322279  47.3898639
  55.0898480  91.0028805  57.7143917  55.6080424  91.7389832  57.3890406
  54.7353613  91.3092799  58.5490676  46.6697418  95.8633487  45.8305323
  45.9766663  95.9377842  45.1745359  46.4249170  95.0993830  46.3526840
  53.1444543 106.5988082  44.7969840  52.5718510 107.2178269  44.3440312
  53.7177336 107.1487444  45.3309762  59.2119933  95.8446722  56.9816389
  60.1637355  95.9444820  57.0028613  59.0423383  95.0524990  57.4914473
  57.2334312  92.9302305  57.1675790  56.6384244  93.2107318  56.4722278
  56.9484009  93.4196206  57.9392531  56.3641803 106.8825232  45.9278422
  57.2972476 106.8170794  46.1311298  56.2765015 107.7181499  45.4692955
  58.9929819 106.1991102  42.8882370  58.9143451 105.8650966  43.7818128
  59.8139486 106.6912870  42.8873842  61.6908010  99.0652842  56.0958688
  61.6584330  98.1268842  56.2818372  62.3008634  99.1436878  55.3624513
  53.5291341  97.9348895  42.1385892  54.4750446  97.8055103  42.2074310
  53.1505586  97.1963556  42.6155321  61.8402499  95.8563885  56.1416972
  61.3241548  95.0722342  55.9546900  62.7242447  95.5282602  56.3063491
  59.5013226  89.6004901  52.1012784  59.3038047  89.2919989  52.9856116
  60.1112931  90.3266540  52.2310714  67.5084560 100.1268848  55.2364725
  68.2387949  99.8654137  55.7972428  66.8991506  99.3897570  55.2766793
  65.5899857  98.2676711  55.8339176  64.8633021  98.1332676  55.2255668
  65.1747144  98.5753540  56.6395894  53.4130034 101.9866641  63.5986549
  54.3333043 102.1645240  63.7926596  53.3779617 101.0422686  63.4466249
  51.7134258  95.8598871  42.0740778  50.8065714  95.5631984  42.1503491
  51.9910239  95.5628689  41.2075064  42.6312199  97.1805234  52.5239824
  42.3114983  96.3270543  52.2314198  42.0845627  97.3953813  53.2797791
  46.4092106  99.8967675  56.2409331  46.6278116 100.8284783  56.2597364
  46.8217880  99.5375650  57.0264134  53.3296324  90.4035761  48.2285019
  52.5197052  90.0582846  48.6040265  54.0180741  90.0943304  48.8172630
  55.2586872  89.4813807  49.8509316  55.8117911  89.9009261  50.5099339
  55.4956959  88.5549556  49.8932272  51.2819972  95.4700881  65.6312079
  51.1816699  96.4195238  65.5624171  51.0641514  95.1419120  64.7588150
  50.4833043  92.7185806  42.2152757  51.3452207  93.0440704  42.4748574
  50.6683387  91.9317302  41.7025823  42.5000459 100.8008146  54.4932946
  41.8063930 100.3862099  53.9802900  43.2473450 100.8428682  53.8966365
  58.6365679  91.5914333  49.3587980  58.0564349  92.2499137  48.9766032
  58.3701612  90.7691677  48.9475397  57.0869246  90.9919390  51.5609300
  57.5869024  91.1035925  50.7523619  57.7304854  90.6880443  52.2010109
  51.1451242  98.8998020  64.4477141  50.6618323  99.6998380  64.6541030
  51.2312181  98.9105965  63.4944585  44.4137201 100.7326400  52.3698960
  44.3907889 100.8314087  51.4180844  44.7237838 101.5791550  52.6916127
  47.0724579 102.7902555  56.4845575  48.0267833 102.7586497  56.4175506
  46.8737103 102.3293178  57.2995801  47.6623961 101.3603671  59.0516373
  48.4816850 101.8547749  59.0751210  47.9360769 100.4435639  59.0233940
  57.4190558  93.7514423  48.4144328  56.5316413  94.0364074  48.1964523
  57.8344547  93.5908186  47.5671605  60.7705094  93.7760944  52.1298667
  61.5465484  94.2657396  52.4023284  60.0453228  94.2018998  52.5870537
  63.2077652  94.4888563  53.1872608  63.8022143  94.2484299  52.4765916
  63.2804236  93.7695694  53.8146144  56.5633771 103.5159098  42.5092348
  57.2669621 103.7209100  43.1250004  55.8396420 104.0835860  42.7741432
  57.3931581  99.2668959  48.6294618  57.3366783  99.7237510  47.7902251
  57.9459924  98.5059644  48.4517461  61.2036387  95.0558691  49.4544738
  60.9473321  94.6555326  50.2852945  60.5789255  95.7702485  49.3294877
  65.5148725  97.7954764  51.9616029  64.9548283  97.8647953  52.7347591
  64.9092228  97.6195749  51.2415525  58.4720468 103.9541627  44.5590808
  59.3066072 103.5222825  44.3768283  58.3104811 103.7823641  45.4867703
  58.1266361 100.4573740  45.9247147  58.0715164 100.2918012  44.9835592
  57.5012416 101.1649773  46.0809337  42.9158876  95.6941805  59.7508570
  43.5617739  95.1840759  60.2395795  42.7076027  96.4310486  60.3251995
  55.4412268 102.7622652  65.2500710  56.3103427 102.9363304  64.8887345
  54.9619019 103.5817069  65.1276440  51.4362486  89.9581849  45.5032466
  51.4241156  90.9023689  45.6600737  52.3285908  89.7751995  45.2091927
  47.2556367  92.8409422  63.8483584  48.1187828  92.4846227  64.0586908
  46.6821777  92.5023316  64.5358988  66.6546012 112.1962732  51.7299193
  67.4409101 111.7782155  51.3789610  66.9184716 113.1008824  51.8980841
  72.0554439 112.1337965  52.6332171  72.7879611 111.5637182  52.8670001
  71.2993795 111.7459566  53.0738677  69.5779859 105.8459539  57.0926780
  69.2463184 106.7154950  56.8687995  68.9825473 105.5295823  57.7720810
  63.3136046 109.5855106  44.8256862  63.4810448 110.4535343  45.1927333
  63.1233215 109.7482388  43.9018152  69.4708523 110.5654625  54.1720130
  68.5625400 110.4970034  53.8778891  69.4196119 111.0426570  55.0001956
  63.2925267 112.0412764  45.8103529  63.1724892 112.4869815  46.6489009
  62.5977855 112.3898081  45.2517067  63.5449389 111.9844271  62.1155027
  62.7682723 112.5438191  62.1057892  64.1839952 112.4701054  62.6369897
  71.3370169 108.7671064  55.9498004  70.6944549 109.0603597  55.3037799
  70.8325098 108.6523984  56.7551201  68.9910333 112.5134237  46.6383863
  69.9028189 112.7461624  46.4631561  68.4819980 113.0971281  46.0758942
  63.6282171 111.8731472  57.6478713  64.4743366 112.2970885  57.7913362
  63.5680808 111.2165096  58.3417276  66.7781616 109.5335840  59.3059886
  66.5342548 110.2877900  58.7694162  67.0541546 109.9121187  60.1407133
  66.3346308 108.6892273  54.8873724  65.4730787 108.9873526  55.1790462
  66.3608742 108.9062672  53.9554757  59.8137867 106.2490138  64.8413555
  59.4204813 105.6956337  65.5161200  60.6304008 106.5600717  65.2320073
  62.7305828 107.6648017  62.4333812  63.4715542 108.2655171  62.3538274
  62.9623751 106.9225655  61.8751855  66.6762991 103.6929120  56.7098094
  66.3327261 104.5830762  56.6337204  67.0441954 103.5030778  55.8467679
  64.2260385 108.5287432  50.2755767  63.3701981 108.1394283  50.0961406
  64.6387337 108.6079393  49.4155553  65.7559532 106.0633775  54.6747327
  65.2524327 106.0263911  53.8615132  66.0490139 106.9726518  54.7343984
  62.0002418 106.1472505  53.6813509  62.8655414 105.9515314  53.3219398
  62.0679926 105.9182857  54.6082865  66.4299577 111.5564824  47.0430310
  66.1249713 111.8710973  47.8940453  67.3830019 111.6346243  47.0857643
  59.6064737 108.3774713  51.0529875  60.1808489 108.1549895  50.3203068
  60.1935719 108.4463408  51.8058477  68.6644314 114.2648440  51.8594252
  69.1776196 114.8978432  52.3615962  69.3145538 113.6649636  51.4937612
  59.9334324 110.4079174  45.0725761  59.0971636 110.7453861  45.3935035
  59.7939093 110.2728154  44.1352898  61.9087404 105.2515962  49.7804945
  61.2551817 104.9364979  49.1561560  61.8667878 104.6291703  50.5064768
  65.1425145 111.7397896  54.1052592  64.2247706 111.9612843  53.9474281
  65.5585288 111.8144206  53.2464300  65.9260192 113.1389311  49.2355273
  66.6732011 113.6510708  48.9262395  66.1951782 112.8173364  50.0959666
  68.3739030 110.1746428  51.2174062  67.6361786 109.6623814  51.5484305
  68.6265803 109.7346809  50.4057339  68.4750657 102.9522680  51.8115831
  68.7809534 102.0920043  51.5241746  69.2003262 103.5440300  51.6114825
  66.2838308 112.3295357  58.9097295  66.6387696 112.5566830  59.7691761
  66.9310439 112.6613734  58.2874550  60.1778171 109.4371888  55.6943636
  60.8177551 109.2960647  54.9966600  59.3455702 109.1506401  55.3182238
  57.1806788 109.4072213  50.4716623  57.4413605 110.3217546  50.3625783
  58.0023960 108.9396655  50.6213236  58.6531713 110.8209970  57.6415448
  59.3254767 110.6127332  56.9928096  57.8261500 110.6232056  57.2020680
  64.5557285 107.4471911  59.6581108  63.9085200 108.1461861  59.5645585
  65.3258301 107.8808055  60.0257357  60.3970445 110.7937750  59.7097204
  59.8607802 110.3428489  60.3618800  59.8087153 110.9283659  58.9667668
  59.8072704 110.2526402  42.2723667  58.9302170 110.1315202  41.9085914
  60.2830457 109.4612480  42.0202556  66.3033280 108.4147321  52.1620393
  66.8001980 107.6617284  51.8421464  65.5320262 108.4511638  51.5963603
  62.8868249 110.5564704  51.8892078  62.5166036 110.0035745  52.5772984
  63.3827341 109.9522838  51.3367078  70.7735612 113.0136328  50.2708851
  71.2396064 113.8464320  50.1969154  71.2243113 112.5481310  50.9754109
  68.7452275 105.3816915  54.3099752  67.8315355 105.6121142  54.4781959
  69.1745376 105.4655359  55.1613785  68.5158733 113.5706807  56.8099646
  67.8630184 113.8182714  56.1552099  68.8939113 112.7570945  56.4762124
  58.2833583 107.9668695  58.1345184  58.3474909 108.8283526  57.7222582
  58.2200703 107.3542697  57.4017543  57.7585855 110.0391828  61.7818218
  58.3857894 109.6568905  62.3955743  56.9013774 109.8206030  62.1473911
  58.0645645 109.9224253  53.6964122  57.3432231 110.5360221  53.5571595
  58.8538901 110.4582018  53.6180768  60.8671958 107.2578680  59.9704774
  61.3906360 107.5040976  60.7331083  60.6484292 108.0898715  59.5507911
  56.2639239 109.5282355  47.8375898  55.9351946 108.6479733  47.6551004
  56.6178610 109.4730023  48.7252288  59.3781063 109.8155324  48.2051376
  59.7177135 110.3441246  47.4829984  59.8253183 110.1535730  48.9809943
  62.0724503 108.1992375  57.6554444  61.7321324 107.4000188  58.0575124
  61.3663510 108.4994086  57.0831277  62.7240975 105.2841687  56.1081767
  63.5467044 104.8102166  55.9860657  62.9679039 106.0632171  56.6080453
  61.3649210 108.3129946  46.4044669  62.0857572 108.6911199  45.9008386
  60.7414514 109.0318823  46.5079647  65.5080333 109.0175095  47.3403001
  65.7243947 109.8999733  47.0391829  65.0274400 108.6261308  46.6108643
  62.1075937 108.9663356  53.9654635  62.0937506 108.0704449  53.6286933
  62.8248365 108.9734020  54.5992921  63.9602068 109.4000696  56.0107763
  63.7019845 110.3217767  56.0092093  63.4287108 109.0031131  56.7008227
  61.5112833 107.8477736  49.2342205  61.6328744 106.9194383  49.4333093
  61.2214875 107.8616422  48.3220521  64.3804023 105.5332647  52.3708925
  64.4025720 105.5971980  51.4160905  64.7972082 104.6937155  52.5649431
  60.9953912 109.3609734  63.4432138  61.0442068 110.2371857  63.0609908
  61.5376427 108.8187127  62.8703781  68.8910395 112.7374251  61.3525310
  69.7920258 112.5980716  61.0609308  68.9658370 112.9028706  62.2923488
  63.2253201 110.1141106  60.1978497  62.3556510 110.4074672  59.9261085
  63.4612681 110.6981551  60.9185760  71.3512018 114.2972879  58.7488083
  71.8266140 114.4900526  57.9406934  70.4277583 114.3532065  58.5031467
  65.9292235 106.3320723  57.7143917  66.4474178 107.0681750  57.3890406
  65.5747367 106.6384716  58.5490676  66.1804829 102.7521006  53.2344814
  66.4606583 102.0844195  53.8605240  66.9655436 102.9450101  52.7219477
  70.0513687 111.1738640  56.9816389  71.0031110 111.2736737  57.0028613
  69.8817138 110.3816908  57.4914473  68.0728067 108.2594223  57.1675790
  67.4777999 108.5399236  56.4722278  67.7877763 108.7488124  57.9392531
  72.6796253 111.1855803  56.1416972  72.1635302 110.4014259  55.9546900
  73.5636202 110.8574519  56.3063491  70.3406980 104.9296818  52.1012784
  70.1431801 104.6211906  52.9856116  70.9506686 105.6558457  52.2310714
  62.5528013 111.1890789  42.0740778  61.6459468 110.8923901  42.1503491
  62.8303994 110.8920607  41.2075064  64.1690079 105.7327678  48.2285019
  63.3590807 105.3874763  48.6040265  64.8574496 105.4235222  48.8172630
  66.0980627 104.8105725  49.8509316  66.6511666 105.2301179  50.5099339
  66.3350713 103.8841473  49.8932272  62.1213726 110.7992799  65.6312079
  62.0210453 111.7487156  65.5624171  61.9035268 110.4711038  64.7588150
  61.3226798 108.0477724  42.2152757  62.1845962 108.3732622  42.4748574
  61.5077142 107.2609220  41.7025823  69.4759434 106.9206250  49.3587980
  68.8958103 107.5791054  48.9766032  69.2095367 106.0983595  48.9475397
  67.9263000 106.3211308  51.5609300  68.4262779 106.4327843  50.7523619
  68.5698608 106.0172361  52.2010109  68.2584312 109.0806341  48.4144328
  67.3710167 109.3655991  48.1964523  68.6738301 108.9200104  47.5671605
  71.6098848 109.1052862  52.1298667  72.3859238 109.5949314  52.4023284
  70.8846982 109.5310916  52.5870537  74.0471407 109.8180481  53.1872608
  74.6415898 109.5776217  52.4765916  74.1197990 109.0987611  53.8146144
  72.0430142 110.3850608  49.4544738  71.7867076 109.9847244  50.2852945
  71.4183010 111.0994402  49.3294877  62.2756241 105.2873767  45.5032466
  62.2634910 106.2315607  45.6600737  63.1679662 105.1043912  45.2091927
  66.0908360 101.8816544  49.7578403  65.3240756 101.3275030  49.9035085
  66.5019065 101.9538412  50.6192554  58.0950121 108.1701339  63.8483584
  58.9581583 107.8138144  64.0586908  57.5215532 107.8315234  64.5358988
  12.9035972  14.8313812  41.3791292  13.5414382  14.7120560  40.6754632
  12.7856815  15.7794656  41.4379244   9.7125679  14.7841240  41.3152816
   9.3744190  14.6682305  40.4273351  10.5815447  14.3832405  41.2953822
   5.5712494  16.6376717  37.3049707   5.0077359  16.5466654  36.5365995
   5.4564889  15.8176621  37.7852200  10.1945462  15.9376092  47.2739022
  10.1834102  15.5428890  46.4019525  10.3566101  15.2042165  47.8672793
   3.1176926  18.1327908  40.1433928   3.9098218  17.7918733  39.7280227
   3.3573576  18.2422883  41.0636081  11.1512053  20.3047684  32.6164172
  10.5000033  20.8901765  32.2298186  11.9456416  20.8353879  32.6759210
   5.0767680  17.3936822  33.0151306   5.8498556  16.8465809  32.8764182
   5.4293079  18.2581071  33.2265768   6.9152723  18.7213204  46.2218206
   6.6242589  19.6258835  46.1064872   7.5509707  18.7629731  46.9362275
   7.8408930  16.0990052  42.8119565   8.4372502  15.8746075  42.0976528
   7.8983901  15.3574798  43.4145013  12.4577241  12.5565266  38.4544500
  13.2440330  12.1384689  38.1034917  12.7215945  13.4611358  38.6226148
  12.6287318  17.9938116  33.1533156  11.9933151  18.0672743  33.8654061
  12.2984725  18.5831715  32.4752236  17.8585668  12.4940499  39.3577478
  18.5910840  11.9239716  39.5915308  17.1025024  12.1062100  39.7983984
   7.1330247  15.4557594  32.8494131   7.0166505  14.7802497  33.5175216
   7.2432507  14.9689968  32.0326284   9.4761788  14.9167741  36.5540821
   9.1119995  14.3898362  37.2653742  10.3328904  14.5266210  36.3807306
  15.3811088   6.2062073  43.8172087  15.0494413   7.0757484  43.5933302
  14.7856702   5.8898357  44.4966117  11.8742608  18.4074619  43.2167999
  11.5743331  19.3099658  43.1083807  11.5293667  18.1406803  44.0689152
   5.3255089  14.8588416  39.2504704   4.4005586  14.7264630  39.4582396
   5.5739502  15.6382635  39.7474646  15.2739752  10.9257160  40.8965437
  14.3656629  10.8572568  40.6024198  15.2227347  11.4029104  41.7247262
   9.0956495  12.4015298  32.5348836   8.9756121  12.8472349  33.3734316
   8.4009084  12.7500616  31.9762374   2.6863900  14.5021690  40.0848493
   2.8156281  14.7556169  40.9987905   2.0061352  15.0949398  39.7653148
   6.8563388  25.1718940  36.1838967   6.7787417  26.1226765  36.2627448
   6.2525031  24.8264812  36.8413893   9.3480617  12.3446805  48.8400334
   8.5713951  12.9040725  48.8303199   9.9871180  12.8303588  49.3615204
  17.1401398   9.1273598  42.6743311  16.4975778   9.4206131  42.0283105
  16.6356327   9.0126518  43.4796507  14.7941562  12.8736771  33.3629170
  15.7059418  13.1064158  33.1876867  14.2851209  13.4573815  32.8004249
   7.6026990  15.1532259  48.4018301   8.3441674  15.6917302  48.1253125
   6.8963975  15.7798547  48.5589853  13.0782329  17.2961399  46.9990462
  13.4865685  16.8543809  46.2545095  12.3559591  16.7214026  47.2524655
   9.4313399  12.2334006  44.3724019  10.2774595  12.6573419  44.5158668
   9.3712037  11.5767630  45.0662583  13.4011144  17.8562590  40.7542751
  12.7720006  18.0208304  40.0518819  13.0136806  18.2704199  41.5253715
  17.2800376  18.7917027  38.1087115  16.5951414  19.1715929  37.5584148
  17.3644225  19.4012354  38.8419063  12.5812845   9.8938374  46.0305193
  12.3373777  10.6480435  45.4939469  12.8572775  10.2723722  46.8652440
  14.5351307  16.4376986  44.7082459  14.7468203  17.0808746  44.0316840
  14.4881056  15.6039303  44.2404389  12.1377536   9.0494807  41.6119031
  11.2762015   9.3476061  41.9035768  12.1639971   9.2665206  40.6800063
   8.9539106  17.5936998  38.0192836   9.4177451  17.8724701  37.2297459
   8.6895904  16.6920442  37.8365927   5.8463187  17.1408479  40.9572600
   6.4164544  17.5695748  40.3190084   6.4371299  16.8591064  41.6556785
   7.8907992  13.7160150  34.8282402   8.5932035  14.1681194  35.2956328
   7.5588620  13.0743969  35.4562295   6.3388353  12.3071907  49.2033611
   5.7087014  12.9888188  49.4369008   6.2324441  12.1954988  48.2586749
  15.6497135  19.3148942  42.8804816  16.4714579  18.9129129  42.5987498
  15.6459538  19.2117176  43.8320932   9.4153739  18.8632985  45.0365526
   9.4798171  19.3253392  45.8723698   8.7064663  18.2330350  45.1647836
  23.7403128  15.6587690  39.2289787  22.9866837  15.0895088  39.0733792
  23.8750670  15.6250355  40.1760422   9.1301756  20.5301093  34.9044507
   8.9947431  21.3752628  35.3329355   9.6711569  20.7320370  34.1410441
   2.5831154  18.0476531  35.4772432   3.0955674  18.8419781  35.6277997
   3.2353867  17.3502821  35.4106033   4.3926039  21.1642287  37.5595185
   4.5692667  22.0860252  37.3716169   5.1882872  20.8500706  37.9889565
  10.7570233  21.1524659  49.0344849  10.3134087  20.3661038  48.7165753
  11.4187446  21.3403810  48.3688740   5.5157354  22.6820461  43.5605527
   6.0664779  22.5537524  42.7882521   4.6768830  22.9815350  43.2100420
  12.8551471  21.4327459  47.0626250  12.8369946  22.2536340  46.5706519
  13.7771391  21.3081534  47.2876391   9.3124525  18.9471589  47.9049759
   9.8452862  18.1859877  47.6749067   8.7838606  18.6545240  48.6473913
  12.4444503  14.0440266  31.9415835  11.9291126  14.8144870  32.1804223
  12.1721811  13.3705402  32.5648897  17.4178777  16.7972620  33.8769009
  16.6408220  16.4583780  33.4324171  18.0970258  16.8025243  33.2023974
  12.2330806  11.9167358  33.7675617  11.9280942  12.2313507  34.6185760
  13.1861248  11.9948778  33.8102950  10.6777238  18.0757581  35.4168571
  10.1498599  17.3410341  35.1041808  10.1764741  18.8532257  35.1708539
  15.6570084  16.2706602  40.5335617  14.9993758  16.9605863  40.6215745
  16.4610483  16.6603033  40.8769603  14.4675543  14.6250974  38.5839559
  14.9807424  15.2580966  39.0861268  15.1176767  14.0252170  38.2182919
  11.7297917  24.6035299  31.3400230  11.0559616  24.9066995  31.9485188
  12.1163739  25.4064379  30.9905687  10.9456373  12.1000430  40.8297899
  10.0278935  12.3215377  40.6719587  11.3616517  12.1746740  39.9709606
  11.7291421  13.4991845  35.9600579  12.4763240  14.0113243  35.6507701
  11.9983011  13.1775898  36.8204973  10.0018071  15.9950386  32.9427534
   9.0929291  15.7109419  33.0400003  10.0313155  16.4149465  32.0830841
  15.2337339  19.6056976  36.7118701  14.7799666  18.7647886  36.7683892
  14.6031306  20.2418374  37.0493481  14.1770258  10.5348962  37.9419369
  13.4393015  10.0226348  38.2729611  14.4297032  10.0949343  37.1302646
  13.6770278  21.4433472  37.6468519  13.9693252  22.0038529  36.9280885
  14.1868899  21.7362033  38.4021678   8.5502965  13.6079007  39.0437329
   8.6051575  12.6552843  38.9679806   7.7394167  13.7638446  39.5278627
   9.6994159  17.5359130  30.2815612   9.2613589  16.8194989  29.8221250
  10.4404600  17.7635245  29.7200704   6.4895325  12.2256067  36.8027708
   5.6763191  12.5250237  37.2092900   6.9854320  11.8311755  37.5202190
   8.6403903  22.2213823  38.7361973   8.5980082  22.4474670  37.8070505
   9.5566602  21.9877198  38.8847774  12.0869537  12.6897891  45.6342602
  12.4418925  12.9169364  46.4937068  12.7341668  13.0216268  45.0119857
  17.8167274  15.8116327  36.3391931  17.6785173  16.0017923  35.4113120
  17.4603493  16.5735710  36.7959982  17.8436654  17.8792854  41.3503202
  18.2773160  17.7868143  42.1986256  18.5568234  17.8550354  40.7123218
   6.7569704  19.0976852  38.5323935   7.5510303  18.6027173  38.3306510
   6.0461396  18.5694716  38.1691641  11.5764549  21.4794948  42.8836303
  11.6301571  22.0485884  43.6514019  10.7079330  21.6496833  42.5190340
  18.7052203  17.9216555  43.8836088  18.8988093  18.8262365  44.1295363
  18.6052821  17.4623974  44.7174673  13.7667312  18.0723297  49.4576968
  13.6152818  17.8433849  48.5407052  13.7571991  19.0293899  49.4708313
  10.5352648  15.6455210  44.4423235  11.4644708  15.7966370  44.2692202
  10.1143678  15.7339231  43.5871881   9.3340980  19.6705874  42.2121772
   9.1952066  19.3024659  43.0847711   8.5455576  20.1853514  42.0405730
   9.9289132  24.7714971  33.5547309  10.1040888  24.3003014  34.3692932
   9.2421920  25.3980737  33.7828570  10.8846195  19.0487477  39.6010610
  10.5496028  19.0088247  40.4968260  10.3850141  18.3832193  39.1281020
   4.8590439  14.4555107  45.1263191   4.7210237  13.7235346  45.7274730
   5.7695363  14.3664007  44.8447379  13.8205387  16.3943512  29.8747670
  13.2034557  15.6690340  29.7780723  13.3521875  17.1552872  29.5314744
   7.4872740  14.1675067  44.6146871   8.1972358  13.5268259  44.5733489
   7.4442048  14.4187961  45.5373052  15.4759518  21.1042420  47.5353450
  15.4172065  20.4201640  46.8684033  15.8779037  21.8461410  47.0834076
   4.4950217  27.9204334  40.3287169   4.7346816  28.5522858  41.0066188
   3.6519414  27.5692374  40.6152528  15.4776926  19.0682004  45.7667430
  14.5903705  18.7307926  45.8893829  16.0475477  18.3365035  46.0036195
   9.0078079  23.7283456  42.7328673   8.9348251  24.5338428  43.2447978
   8.5655472  23.9275422  41.9076694   8.7967859  22.9655226  36.2431495
   8.0135381  23.5076906  36.3369719   9.4960604  23.4829206  36.6425736
  12.1064509   8.7749856  38.8865700  12.6033208   8.0219818  38.5666770
  11.3351490   8.8114172  38.3208909  19.9594266  14.4790221  40.5283992
  19.9484143  15.3614937  40.1577925  19.0911646  14.1261772  40.3338529
  11.4676763  23.6270290  44.8886832  12.1804735  24.2617755  44.8162733
  10.9766791  23.7234156  44.0726834  13.1894290  17.5321543  36.4604123
  12.2550568  17.6523005  36.2908828  13.3670958  16.6294010  36.1964133
  16.5766841  13.3738862  36.9954158  17.0427293  14.2066854  36.9214460
  17.0274341  12.9083844  37.6999416   6.5188676  21.3764734  45.7092403
   7.2198136  22.0101217  45.8621797   6.0483791  21.7179465  44.9488042
  14.6443072  19.7182683  33.9940310  14.9202916  19.6039278  34.9034184
  13.7747571  19.3200168  33.9552483  14.3189962  13.9309341  43.5344953
  13.6661412  14.1785249  42.8797406  14.6970342  13.1173479  43.2007430
  11.2797136  23.9669034  37.6373123  11.4619531  23.1490690  38.1000876
  12.1030122  24.1836727  37.1998013  11.6139302  22.8937219  34.8988172
  12.1427068  22.3829674  34.2858334  11.8767521  22.5779750  35.7633705
  10.3677535  14.6729152  50.0210990   9.6918172  14.5723281  50.6913365
  11.1905169  14.5168366  50.4846987   2.1156394  20.9101089  42.6423505
   2.7009831  20.1644777  42.7751409   1.9181233  21.2205045  43.5260169
   4.9695049  23.9452336  37.6585948   4.3005425  24.4298464  37.1749988
   4.8307919  24.1921557  38.5729326   9.1100318  25.9796080  44.2568606
   9.6618626  26.1427701  45.0217691   9.4506512  26.5700517  43.5848631
  13.9611192  20.8057337  50.1117260  14.5051096  21.4187295  49.6172215
  13.3798037  21.3636916  50.6284273  12.2468705  23.9278055  41.2432288
  12.1219845  23.1267795  40.7343234  12.9047796  24.4224249  40.7546258
  14.3103614  21.7287075  42.8711838  13.3633949  21.6092426  42.7990165
  14.6586387  20.8409573  42.9538100  11.3150047  21.5239791  39.0716190
  11.1675009  20.5956499  39.2523761  12.1403541  21.5459882  38.5873266
  14.9184169  22.3468350  40.1581063  15.8430716  22.1411212  40.0205514
  14.7499472  22.0984751  41.0670405  11.3111561   9.3777629  34.0648308
  11.5275176  10.2602267  33.7637136  10.8305629   8.9863842  33.3353950
   6.0510783  12.3363342  40.6419052   5.9055363  12.6503645  41.5343334
   5.5735986  12.9548243  40.0889951  14.7079485  22.8654018  35.5143155
  14.8816363  22.3000440  34.7617007  15.2008376  23.6654913  35.3322645
  20.5618876  15.6290441  37.1333454  21.0050022  14.8797766  36.7352578
  19.6845387  15.6200577  36.7507186  15.6954658  22.1820782  32.6140053
  16.3905562  22.8027475  32.8327368  16.0377808  21.3316133  32.8892431
  17.5946081  19.6320488  34.1427384  18.1197405  19.9707760  33.4176704
  17.5068433  18.6967503  33.9590518   9.2566129  23.5454561  46.2717260
   9.5653256  23.3003708  47.1439960  10.0541611  23.7501200  45.7836131
   9.2786741  25.6992471  38.5022637   8.8391732  25.2068850  39.1955494
  10.0294858  25.1565438  38.2614712   1.7579080  21.8904012  38.5047265
   2.5837100  21.5907784  38.1245909   1.4073132  21.1211634  38.9537054
   6.7260614  21.2430480  40.5744939   6.1040623  20.5801185  40.2747166
   7.3965481  21.2691612  39.8918586  17.2839987  20.2653391  49.4478582
  16.4935530  20.2477530  48.9083081  17.0473341  20.8041685  50.2027618
  17.4037862  17.1145858  46.7611310  17.4535867  16.9495865  47.7026833
  17.2951785  16.2473117  46.3709191   6.2874121  19.7934403  34.0503399
   6.4362241  20.4769868  33.3970072   7.0940564  19.7739493  34.5652855
  14.6941624  13.0976786  48.0770617  15.5951487  12.9583250  47.7854615
  14.7689599  13.2631240  49.0168794   9.0284430  10.4743640  46.9223803
   8.1587739  10.7677206  46.6506392   9.2643910  11.0584085  47.6431067
  18.9056059  19.5342799  47.0053332  18.6140867  19.8972780  47.8416793
  18.2928190  18.8209807  46.8266664  20.1051741  17.0995679  39.5255902
  20.9398632  17.5385483  39.6893462  20.2410870  16.6234332  38.7064148
  17.1543247  14.6575414  45.4733390  17.6297368  14.8503060  44.6652241
  16.2308812  14.7134600  45.2276773   4.0426753  15.8199581  35.0564468
   3.7972795  14.9161911  35.2544678   4.2122668  15.8216731  34.1143946
   9.7869526  22.2882534  31.5215147   9.2143493  22.9072721  31.0685618
  10.3602320  22.8381895  32.0555068  15.8544916  11.5341174  43.7061695
  16.8062339  11.6339271  43.7273919  15.6848366  10.7419442  44.2159780
  13.8759295   8.6196757  43.8921096  13.2809227   8.9001770  43.1967585
  13.5908992   9.1090658  44.6637837  13.0066786  22.5719684  32.6523729
  13.9397459  22.5065246  32.8556604  12.9189999  23.4075951  32.1938261
  15.6354802  21.8885554  29.6127676  15.5568434  21.5545418  30.5063434
  16.4564469  22.3807322  29.6119149  18.3332994  14.7547293  42.8203995
  18.3009314  13.8163294  43.0063679  18.9433617  14.8331330  42.0869820
  18.4827482  11.5458337  42.8662278  17.9666531  10.7616794  42.6792207
  19.3667431  11.2177054  43.0308798  24.1509544  15.8163300  41.9610032
  24.8812932  15.5548588  42.5217735  23.5416489  15.0792022  42.0012100
  22.2324841  13.9571163  42.5584483  21.5058004  13.8227128  41.9500975
  21.8172128  14.2647992  43.3641201  10.0555017  17.6761093  50.3231856
  10.9758027  17.8539692  50.5171903  10.0204600  16.7317138  50.1711555
   3.0517090  15.5862127  42.9654637   3.2703099  16.5179235  42.9842671
   3.4642863  15.2270102  43.7509441   7.9244955  11.1595333  52.3557386
   7.8241682  12.1089690  52.2869477   7.7066497  10.8313572  51.4833456
  15.2790663   7.2808785  36.0833286  14.6989332   7.9393589  35.7011339
  15.0126595   6.4586129  35.6720704  13.7294229   6.6813842  38.2854607
  14.2294008   6.7930377  37.4768926  14.3729837   6.3774895  38.9255415
   7.7876225  14.5892472  51.1722448   7.3043307  15.3892832  51.3786337
   7.8737164  14.6000417  50.2189892   1.0562185  16.4220852  39.0944267
   1.0332873  16.5208539  38.1426150   1.3662821  17.2686002  39.4161433
   3.7149562  18.4797007  43.2090882   4.6692816  18.4480949  43.1420813
   3.5162086  18.0187630  44.0241107   4.3048945  17.0498123  45.7761679
   5.1241834  17.5442201  45.7996516   4.5785752  16.1330091  45.7479247
  14.0615541   9.4408875  35.1389635  13.1741396   9.7258526  34.9209829
  14.4769530   9.2802638  34.2916912  17.4130077   9.4655396  38.8543974
  18.1890467   9.9551848  39.1268591  16.6878211   9.8913450  39.3115843
  19.8502636  10.1783015  39.9117915  20.4447126   9.9378751  39.2011223
  19.9229219   9.4590146  40.5391451   2.0699791  24.0216626  40.2261079
   1.9354259  23.2617027  39.6599077   1.6531854  24.7457526  39.7589868
  13.2058754  19.2053550  29.2337655  13.9094604  19.4103552  29.8495310
  12.4821403  19.7730311  29.4986738  14.0356565  14.9563411  35.3539925
  13.9791766  15.4131962  34.5147557  14.5884907  14.1954095  35.1762768
  17.8461370  10.7453143  36.1790044  17.5898305  10.3449778  37.0098252
  17.2214239  11.4596937  36.0540184  22.1573708  13.4849216  38.6861336
  21.5973266  13.5542405  39.4592898  21.5517212  13.3090201  37.9660832
   5.2268917  24.9185943  40.4379522   5.1101301  25.8631376  40.3358212
   4.4061363  24.6159505  40.8265321  15.1145452  19.6436079  31.2836115
  15.9491056  19.2117277  31.1013590  14.9529795  19.4718092  32.2113009
  14.7691344  16.1468192  32.6492454  14.7140148  15.9812464  31.7080898
  14.1437399  16.8544225  32.8054644  12.0837251  18.4517104  51.9746017
  12.9528411  18.6257756  51.6132652  11.6044003  19.2711521  51.8521746
   6.2523431  25.5714205  43.6535450   7.1550678  25.6037815  43.9701945
   6.0260801  24.6414656  43.6681786   8.0077033  24.3245192  40.3145529
   7.0572664  24.3247053  40.2009901   8.3109519  23.5777926  39.7981564
  23.7429727  30.1605730  41.3791292  24.3808137  30.0412477  40.6754632
  23.6250570  31.1086574  41.4379244  20.5519433  30.1133158  41.3152816
  20.2137945  29.9974223  40.4273351  21.4209201  29.7124323  41.2953822
  16.4106249  31.9668634  37.3049707  15.8471114  31.8758571  36.5365995
  16.2958644  31.1468539  37.7852200  21.0339216  31.2668010  47.2739022
  21.0227857  30.8720808  46.4019525  21.1959856  30.5334082  47.8672793
  13.9570681  33.4619826  40.1433928  14.7491973  33.1210651  39.7280227
  14.1967331  33.5714801  41.0636081  21.9905807  35.6339602  32.6164172
  21.3393787  36.2193683  32.2298186  22.7850170  36.1645797  32.6759210
  15.9161435  32.7228739  33.0151306  16.6892311  32.1757726  32.8764182
  16.2686833  33.5872989  33.2265768  17.7546477  34.0505122  46.2218206
  17.4636343  34.9550752  46.1064872  18.3903462  34.0921649  46.9362275
  18.6802684  31.4281970  42.8119565  19.2766256  31.2037992  42.0976528
  18.7377656  30.6866716  43.4145013  18.2527712  28.8821405  30.6469756
  18.5053233  28.3602927  29.8853219  17.3152272  28.7187551  30.7496440
  23.2970995  27.8857184  38.4544500  24.0834084  27.4676607  38.1034917
  23.5609700  28.7903276  38.6226148  23.4681073  33.3230034  33.1533156
  22.8326906  33.3964661  33.8654061  23.1378479  33.9123633  32.4752236
  28.6979422  27.8232417  39.3577478  29.4304594  27.2531634  39.5915308
  27.9418778  27.4354017  39.7983984  17.9724001  30.7849511  32.8494131
  17.8560259  30.1094415  33.5175216  18.0826261  30.2981885  32.0326284
  20.3155542  30.2459658  36.5540821  19.9513749  29.7190279  37.2653742
  21.1722658  29.8558127  36.3807306  26.2204843  21.5353991  43.8172087
  25.8888168  22.4049402  43.5933302  25.6250456  21.2190275  44.4966117
  19.9561029  25.2749558  31.5502169  20.1235431  26.1429795  31.9172640
  19.7658198  25.4376840  30.6263458  22.7136362  33.7366537  43.2167999
  22.4137085  34.6391576  43.1083807  22.3687422  33.4698720  44.0689152
  16.1648844  30.1880334  39.2504704  15.2399340  30.0556548  39.4582396
  16.4133257  30.9674553  39.7474646  26.1133506  26.2549077  40.8965437
  25.2050383  26.1864486  40.6024198  26.0621102  26.7321022  41.7247262
  19.9350250  27.7307216  32.5348836  19.8149875  28.1764266  33.3734316
  19.2402838  28.0792533  31.9762374  13.5257655  29.8313607  40.0848493
  13.6550036  30.0848086  40.9987905  12.8455106  30.4241315  39.7653148
  17.6957142  40.5010857  36.1838967  17.6181172  41.4518682  36.2627448
  17.0918786  40.1556730  36.8413893  20.1874372  27.6738723  48.8400334
  19.4107706  28.2332643  48.8303199  20.8264935  28.1595506  49.3615204
  27.9795152  24.4565516  42.6743311  27.3369533  24.7498049  42.0283105
  27.4750081  24.3418436  43.4796507  25.6335316  28.2028689  33.3629170
  26.5453172  28.4356076  33.1876867  25.1244963  28.7865733  32.8004249
  18.4420744  30.4824176  48.4018301  19.1835429  31.0209220  48.1253125
  17.7357730  31.1090465  48.5589853  23.9176084  32.6253317  46.9990462
  24.3259440  32.1835727  46.2545095  23.1953345  32.0505944  47.2524655
  20.2707154  27.5625923  44.3724019  21.1168349  27.9865337  44.5158668
  20.2105792  26.9059548  45.0662583  24.2404898  33.1854507  40.7542751
  23.6113761  33.3500221  40.0518819  23.8530561  33.5996117  41.5253715
  28.1194130  34.1208945  38.1087115  27.4345168  34.5007846  37.5584148
  28.2037980  34.7304272  38.8419063  23.4206599  25.2230292  46.0305193
  23.1767531  25.9772352  45.4939469  23.6966530  25.6015639  46.8652440
  25.3745062  31.7668904  44.7082459  25.5861957  32.4100664  44.0316840
  25.3274810  30.9331221  44.2404389  22.9771291  24.3786725  41.6119031
  22.1155770  24.6767978  41.9035768  23.0033726  24.5957124  40.6800063
  19.7932860  32.9228915  38.0192836  20.2571206  33.2016618  37.2297459
  19.5289658  32.0212360  37.8365927  16.6856941  32.4700397  40.9572600
  17.2558298  32.8987665  40.3190084  17.2765053  32.1882982  41.6556785
  18.7301746  29.0452068  34.8282402  19.4325790  29.4973111  35.2956328
  18.3982375  28.4035887  35.4562295  17.1782108  27.6363824  49.2033611
  16.5480768  28.3180105  49.4369008  17.0718196  27.5246906  48.2586749
  12.4727080  27.3035620  40.1299535  11.6826134  27.5593149  39.6539646
  12.9638328  28.1183958  40.2351576  26.4890890  34.6440860  42.8804816
  27.3108334  34.2421047  42.5987498  26.4853293  34.5409094  43.8320932
  14.4241826  27.6680200  37.0883012  13.6272989  27.7798894  37.6066508
  14.1967418  28.0066852  36.2223902  20.2547493  34.1924903  45.0365526
  20.3191926  34.6545310  45.8723698  19.5458417  33.5622268  45.1647836
  10.7564783  27.5566111  42.5614526  11.0072822  28.4413121  42.8272102
  11.2924332  27.3770712  41.7889618  34.5796883  30.9879608  39.2289787
  33.8260591  30.4187006  39.0733792  34.7144424  30.9542273  40.1760422
  19.9695511  35.8593010  34.9044507  19.8341186  36.7044546  35.3329355
  20.5105323  36.0612288  34.1410441  16.4562851  21.9384590  51.5658862
  16.0629796  21.3850789  52.2406506  17.2728991  22.2495169  51.9565380
  13.4224908  33.3768448  35.4772432  13.9349429  34.1711699  35.6277997
  14.0747621  32.6794739  35.4106033  15.2319793  36.4934205  37.5595185
  15.4086421  37.4152169  37.3716169  16.0276627  36.1792624  37.9889565
  19.3730812  23.3542469  49.1579119  20.1140525  23.9549622  49.0783581
  19.6048734  22.6120107  48.5997161  14.5172150  28.5398837  47.4357348
  14.4025665  27.6384094  47.7364447  13.6616667  28.7862533  47.0842165
  21.5963987  36.4816577  49.0344849  21.1527842  35.6952955  48.7165753
  22.2581201  36.6695727  48.3688740  16.3551109  38.0112378  43.5605527
  16.9058534  37.8829442  42.7882521  15.5162584  38.3107267  43.2100420
  23.6945225  36.7619377  47.0626250  23.6763701  37.5828258  46.5706519
  24.6165145  36.6373452  47.2876391  20.1518280  34.2763506  47.9049759
  20.6846616  33.5151794  47.6749067  19.6232361  33.9837158  48.6473913
  23.3187975  19.3823572  43.4343400  22.9752244  20.2725214  43.3582511
  23.6866937  19.1925230  42.5712985  11.3873825  31.7057103  36.2532002
  12.2249047  32.1154111  36.0365710  11.5652093  30.7656545  36.2232196
  23.2838257  29.3732183  31.9415835  22.7684881  30.1436788  32.1804223
  23.0115566  28.6997319  32.5648897  20.8685368  24.2181884  37.0001074
  20.0126965  23.8288735  36.8206712  21.2812320  24.2973845  36.1400859
  22.3984515  21.7528227  41.3992634  21.8949311  21.7158363  40.5860439
  22.6915122  22.6620970  41.4589290  18.6427401  21.8366957  40.4058815
  19.5080398  21.6409766  40.0464705  18.7104910  21.6077309  41.3328172
  28.2572531  32.1264538  33.8769009  27.4801974  31.7875697  33.4324171
  28.9364012  32.1317161  33.2023974  23.0724560  27.2459275  33.7675617
  22.7674696  27.5605425  34.6185760  24.0255003  27.3240695  33.8102950
  21.5170992  33.4049499  35.4168571  20.9892354  32.6702258  35.1041808
  21.0158495  34.1824175  35.1708539  26.4963838  31.5998519  40.5335617
  25.8387513  32.2897781  40.6215745  27.3004238  31.9894951  40.8769603
  16.2489720  24.0669165  37.7775182  16.8233472  23.8444347  37.0448375
  16.8360702  24.1357860  38.5303783  25.3069297  29.9542892  38.5839559
  25.8201179  30.5872884  39.0861268  25.9570521  29.3544087  38.2182919
  16.5759307  26.0973626  31.7971067  15.7396619  26.4348313  32.1180342
  16.4364077  25.9622606  30.8598204  18.5512388  20.9410414  36.5050252
  17.8976800  20.6259431  35.8806866  18.5092862  20.3186154  37.2310074
  19.6623592  31.2229709  28.4203544  18.7550654  30.9918962  28.6194693
  20.1594624  30.4267328  28.6077525  22.5691671  39.9327216  31.3400230
  21.8953370  40.2358913  31.9485188  22.9557493  40.7356297  30.9905687
  21.7850128  27.4292347  40.8297899  20.8672689  27.6507294  40.6719587
  22.2010272  27.5038658  39.9709606  22.5685176  28.8283763  35.9600579
  23.3156995  29.3405160  35.6507701  22.8376765  28.5067816  36.8204973
  20.8411826  31.3242304  32.9427534  19.9323045  31.0401337  33.0400003
  20.8706910  31.7441382  32.0830841  26.0731093  34.9348893  36.7118701
  25.6193420  34.0939803  36.7683892  25.4425060  35.5710292  37.0493481
  25.0164013  25.8640879  37.9419369  24.2786770  25.3518266  38.2729611
  25.2690786  25.4241261  37.1302646  24.5164033  36.7725390  37.6468519
  24.8087007  37.3330447  36.9280885  25.0262653  37.0653951  38.4021678
  25.1175640  18.6417131  38.5361138  25.4234517  17.7814495  38.2487053
  25.8428245  19.2334752  38.3360132  11.4099996  29.0447818  36.9242736
  11.2124396  28.4517179  36.1993802  10.8546660  28.7400028  37.6418675
  19.3896720  28.9370924  39.0437329  19.4445330  27.9844761  38.9679806
  18.5787922  29.0930364  39.5278627  20.5387914  32.8651048  30.2815612
  20.1007344  32.1486906  29.8221250  21.2798355  33.0927162  29.7200704
  17.3289080  27.5547984  36.8027708  16.5156945  27.8542155  37.2092900
  17.8248074  27.1603673  37.5202190  19.4797658  37.5505741  38.7361973
  19.4373837  37.7766587  37.8070505  20.3960357  37.3169116  38.8847774
  22.9263292  28.0189809  45.6342602  23.2812679  28.2461282  46.4937068
  23.5735423  28.3508185  45.0119857  28.6561029  31.1408245  36.3391931
  28.5178927  31.3309841  35.4113120  28.2997247  31.9027627  36.7959982
  16.8203155  25.1266340  42.4188943  17.4602534  24.9855099  41.7211906
  15.9880685  24.8400853  42.0427545  28.6830408  33.2084772  41.3503202
  29.1166915  33.1160061  42.1986256  29.3961989  33.1842272  40.7123218
  17.5963459  34.4268770  38.5323935  18.3904057  33.9319090  38.3306510
  16.8855151  33.8986633  38.1691641  22.4158303  36.8086866  42.8836303
  22.4695325  37.3777802  43.6514019  21.5473084  36.9788751  42.5190340
  13.9046222  28.5711852  34.6083688  12.9743810  28.5096307  34.8253650
  14.0003694  28.0487805  33.8120329  13.8231771  25.0966665  37.1961930
  14.0838588  26.0111998  37.0871090  14.6448943  24.6291107  37.3458542
  15.2956696  26.5104422  44.3660754  15.9679750  26.3021784  43.7173403
  14.4686483  26.3126508  43.9265986  29.5445958  33.2508472  43.8836088
  29.7381848  34.1554283  44.1295363  29.4446576  32.7915891  44.7174673
  21.1982268  23.1366363  46.3826415  20.5510183  23.8356312  46.2890891
  21.9683284  23.5702507  46.7502663  24.6061066  33.4015215  49.4576968
  24.4546573  33.1725767  48.5407052  24.5965746  34.3585816  49.4708313
  21.3746403  30.9747128  44.4423235  22.3038463  31.1258287  44.2692202
  20.9537433  31.0631149  43.5871881  20.1734735  34.9997792  42.2121772
  20.0345820  34.6316577  43.0847711  19.3849331  35.5145432  42.0405730
  20.7682887  40.1006889  33.5547309  20.9434642  39.6294932  34.3692932
  20.0815675  40.7272655  33.7828570  21.7239950  34.3779395  39.6010610
  21.3889782  34.3380165  40.4968260  21.2243895  33.7124111  39.1281020
  15.6984194  29.7847025  45.1263191  15.5603992  29.0527264  45.7274730
  16.6089117  29.6955925  44.8447379  24.6599141  31.7235429  29.8747670
  24.0428312  30.9982257  29.7780723  24.1915630  32.4844789  29.5314744
  18.3266494  29.4966984  44.6146871  19.0366113  28.8560176  44.5733489
  18.2835802  29.7479879  45.5373052  26.3153273  36.4334338  47.5353450
  26.2565819  35.7493558  46.8684033  26.7172791  37.1753328  47.0834076
  17.0395428  26.4832202  46.4342510  16.5032785  26.0322941  47.0864107
  16.4512137  26.6178111  45.6912975  15.3343972  43.2496251  40.3287169
  15.5740570  43.8814776  41.0066188  14.4913168  42.8984291  40.6152528
  16.4497687  25.9420854  28.9968974  15.5727154  25.8209654  28.6331221
  16.9255440  25.1506932  28.7447863  26.3170680  34.3973921  45.7667430
  25.4297459  34.0599843  45.8893829  26.8869231  33.6656953  46.0036195
   7.9699827  30.7298013  39.0910481   8.6570867  30.4159743  38.5031497
   7.8147956  31.6339378  38.8177733  12.7734550  25.6188210  43.5195505
  12.6892738  25.0113879  42.7845915  11.9517256  26.1097228  43.5205001
  19.8471834  39.0575374  42.7328673  19.7742005  39.8630345  43.2447978
  19.4049227  39.2567340  41.9076694  19.6361613  38.2947144  36.2431495
  18.8529135  38.8368824  36.3369719  20.3354358  38.8121124  36.6425736
  22.9458263  24.1041773  38.8865700  23.4426963  23.3511736  38.5666770
  22.1745245  24.1406090  38.3208909  30.7988021  29.8082139  40.5283992
  30.7877897  30.6906854  40.1577925  29.9305400  29.4553690  40.3338529
  22.3070517  38.9562208  44.8886832  23.0198489  39.5909673  44.8162733
  21.8160546  39.0526074  44.0726834  24.0288044  32.8613461  36.4604123
  23.0944323  32.9814923  36.2908828  24.2064713  31.9585927  36.1964133
  19.5293232  26.2459156  38.6137385  19.1591020  25.6930197  39.3018290
  20.0252325  25.6417290  38.0612385  27.4160595  28.7030780  36.9954158
  27.8821048  29.5358771  36.9214460  27.8668096  28.2375761  37.6999416
  17.3582431  36.7056651  45.7092403  18.0591890  37.3393134  45.8621797
  16.8877546  37.0471383  44.9488042  25.4836827  35.0474601  33.9940310
  25.7596670  34.9331196  34.9034184  24.6141325  34.6492086  33.9552483
  25.3877258  21.0711367  41.0345059  24.4740338  21.3015594  41.2027266
  25.8170360  21.1549811  41.8859091  25.1583717  29.2601259  43.5344953
  24.5055167  29.5077166  42.8797406  25.5364097  28.4465397  43.2007430
  22.1190891  39.2960952  37.6373123  22.3013285  38.4782608  38.1000876
  22.9423877  39.5128644  37.1998013  22.4533056  38.2229137  34.8988172
  22.9820822  37.7121592  34.2858334  22.7161276  37.9071667  35.7633705
  21.2071290  30.0021070  50.0210990  20.5311927  29.9015199  50.6913365
  22.0298924  29.8460284  50.4846987  12.9550149  36.2393006  42.6423505
  13.5403586  35.4936694  42.7751409  12.7574987  36.5496963  43.5260169
  15.8088804  39.2744254  37.6585948  15.1399179  39.7590381  37.1749988
  15.6701674  39.5213474  38.5729326   7.5467804  28.8098607  41.3627948
   7.5851903  28.2762197  42.1565066   7.0408096  28.2833812  40.7438926
  19.9494073  41.3087997  44.2568606  20.5012381  41.4719619  45.0217691
  20.2900266  41.8992435  43.5848631  14.9258566  23.6563147  44.8590491
  14.9899892  24.5177978  44.4467888  14.8625686  23.0437149  44.1262849
  14.4010838  25.7286280  48.5063525  15.0282877  25.3463357  49.1201049
  13.5438757  25.5100482  48.8719217  24.8004947  36.1349255  50.1117260
  25.3444851  36.7479213  49.6172215  24.2191792  36.6928833  50.6284273
  11.1776381  27.5362709  34.4381880  11.4729822  26.6273387  34.3848933
  10.2764417  27.5150448  34.1162882  23.0862460  39.2569973  41.2432288
  22.9613599  38.4559713  40.7343234  23.7441551  39.7516166  40.7546258
  14.7070628  25.6118705  40.4209428  13.9857214  26.2254673  40.2816902
  15.4963884  26.1476470  40.3426074  25.1497368  37.0578993  42.8711838
  24.2027704  36.9384344  42.7990165  25.4980141  36.1701491  42.9538100
  17.5096942  22.9473132  46.6950080  18.0331343  23.1935428  47.4576389
  17.2909275  23.7793167  46.2753217  12.9064223  25.2176806  34.5621205
  12.5776929  24.3374185  34.3796311  13.2603593  25.1624475  35.4497594
  22.1543802  36.8531709  39.0716190  22.0068764  35.9248417  39.2523761
  22.9797295  36.8751800  38.5873266  16.0206046  25.5049776  34.9296683
  16.3602118  26.0335697  34.2075291  16.4678166  25.8430182  35.7055249
  25.7577923  37.6760268  40.1581063  26.6824471  37.4703129  40.0205514
  25.5893227  37.4276669  41.0670405  18.7149487  23.8886827  44.3799751
  18.3746307  23.0894640  44.7820431  18.0088493  24.1888538  43.8076584
  19.3665958  20.9736139  42.8327074  20.1892028  20.4996618  42.7105964
  19.6104022  21.7526623  43.3325760  18.0074193  24.0024398  33.1289975
  18.7282555  24.3805651  32.6253692  17.3839497  24.7213275  33.2324953
  22.1505316  24.7069547  34.0648308  22.3668930  25.5894185  33.7637136
  21.6699383  24.3155760  33.3353950  16.8904537  27.6655260  40.6419052
  16.7449118  27.9795563  41.5343334  16.4129741  28.2840160  40.0889951
  18.7500920  24.6557808  40.6899942  18.7362489  23.7598901  40.3532240
  19.4673348  24.6628472  41.3238228  20.6027051  25.0895148  42.7353069
  20.3444829  26.0112219  42.7337400  20.0712091  24.6925583  43.4253533
  25.5473240  38.1945935  35.5143155  25.7210117  37.6292358  34.7617007
  26.0402131  38.9946830  35.3322645  11.3650199  30.2060604  43.5806713
  10.8203667  30.9820412  43.7126988  12.2429549  30.5531409  43.4225835
  18.1537816  23.5372188  35.9587512  18.2753727  22.6088834  36.1578399
  17.8639858  23.5510874  35.0465827  21.0229006  21.2227099  39.0954232
  21.0450703  21.2866432  38.1406211  21.4397065  20.3831607  39.2894738
  31.4012631  30.9582358  37.1333454  31.8443777  30.2089683  36.7352578
  30.5239141  30.9492495  36.7507186  26.5348412  37.5112700  32.6140053
  27.2299317  38.1319392  32.8327368  26.8771562  36.6608051  32.8892431
  12.1516221  29.3330501  46.4736870  11.4097957  29.4813136  47.0601501
  11.8308966  29.5938766  45.6103620  28.4339835  34.9612405  34.1427384
  28.9591159  35.2999678  33.4176704  28.3462188  34.0259421  33.9590518
  20.0959884  38.8746479  46.2717260  20.4047010  38.6295626  47.1439960
  20.8935366  39.0793117  45.7836131  20.1180496  41.0284389  38.5022637
  19.6785486  40.5360767  39.1955494  20.8688613  40.4857356  38.2614712
  12.5972835  37.2195929  38.5047265  13.4230855  36.9199701  38.1245909
  12.2466887  36.4503552  38.9537054  17.5654368  36.5722398  40.5744939
  16.9434377  35.9093103  40.2747166  18.2359235  36.5983529  39.8918586
  10.7981440  35.1382256  39.4636199   9.9613348  34.7104430  39.2820200
  10.7705085  35.3314699  40.4006990  17.6378896  25.0504186  50.1677445
  17.6867051  25.9266308  49.7855214  18.1801410  24.5081579  49.5949088
  28.1233741  35.5945309  49.4478582  27.3329285  35.5769448  48.9083081
  27.8867096  36.1333603  50.2027618  28.2431616  32.4437775  46.7611310
  28.2929621  32.2787783  47.7026833  28.1345540  31.5765034  46.3709191
  17.1267875  35.1226321  34.0503399  17.2755995  35.8061785  33.3970072
  17.9334318  35.1031411  34.5652855  25.5335379  28.4268703  48.0770617
  26.4345241  28.2875168  47.7854615  25.6083353  28.5923158  49.0168794
  19.8678184  25.8035558  46.9223803  18.9981493  26.0969124  46.6506392
  20.1037664  26.3876003  47.6431067  29.7449813  34.8634717  47.0053332
  29.4534621  35.2264697  47.8416793  29.1321944  34.1501725  46.8266664
  30.9445495  32.4287597  39.5255902  31.7792387  32.8677401  39.6893462
  31.0804624  31.9526250  38.7064148  27.9937001  29.9867331  45.4733390
  28.4691123  30.1794978  44.6652241  27.0702567  30.0426517  45.2276773
  14.8820508  31.1491499  35.0564468  14.6366550  30.2453829  35.2544678
  15.0516423  31.1508649  34.1143946  22.5717218  22.0215175  44.4389224
  23.0899162  22.7576202  44.1135712  22.2172351  22.3279168  45.2735983
  14.1516156  26.8819856  32.5550629  13.4585400  26.9564211  31.8990665
  13.9067907  26.1180200  33.0772146  22.8229812  18.4415457  39.9590120
  23.1031566  17.7738647  40.5850547  23.6080419  18.6344553  39.4464784
  20.6263281  37.6174451  31.5215147  20.0537248  38.2364639  31.0685618
  21.1996074  38.1673813  32.0555068  26.6938670  26.8633091  43.7061695
  27.6456093  26.9631189  43.7273919  26.5242121  26.0711360  44.2159780
  24.7153050  23.9488675  43.8921096  24.1202982  24.2293687  43.1967585
  24.4302747  24.4382576  44.6637837  23.8460540  37.9011602  32.6523729
  24.7791213  37.8357163  32.8556604  23.7583753  38.7367868  32.1938261
  26.4748557  37.2177472  29.6127676  26.3962189  36.8837335  30.5063434
  27.2958224  37.7099240  29.6119149  29.1726748  30.0839211  42.8203995
  29.1403068  29.1455212  43.0063679  29.7827372  30.1623248  42.0869820
  21.0110079  28.9535264  28.8631199  21.9569184  28.8241472  28.9319617
  20.6324324  28.2149926  29.3400627  29.3221237  26.8750255  42.8662278
  28.8060285  26.0908711  42.6792207  30.2061185  26.5468971  43.0308798
  26.9831964  20.6191270  38.8258091  26.7856785  20.3106358  39.7101423
  27.5931669  21.3452909  38.9556021  34.9903298  31.1455218  41.9610032
  35.7206686  30.8840506  42.5217735  34.3810243  30.4083940  42.0012100
  33.0718595  29.2863081  42.5584483  32.3451759  29.1519046  41.9500975
  32.6565882  29.5939909  43.3641201  20.8948772  33.0053010  50.3231856
  21.8151781  33.1831609  50.5171903  20.8598355  32.0609056  50.1711555
  19.1952996  26.8785241  28.7986084  18.2884452  26.5818353  28.8748798
  19.4728977  26.5815059  27.9320371  10.1130937  28.1991604  39.2485131
   9.7933721  27.3456912  38.9559505   9.5664365  28.4140182  40.0043098
  13.8910844  30.9154045  42.9654637  14.1096854  31.8471153  42.9842671
  14.3036618  30.5562019  43.7509441  20.8115062  21.4222130  34.9530326
  20.0015790  21.0769215  35.3285572  21.4999479  21.1129674  35.5417937
  22.7405610  20.5000177  36.5754622  23.2936649  20.9195630  37.2344645
  22.9775697  19.5735925  36.6177578  18.7638709  26.4887251  52.3557386
  18.6635436  27.4381608  52.2869477  18.5460251  26.1605490  51.4833456
  17.9651781  23.7372176  28.9398063  18.8270945  24.0627074  29.1993881
  18.1502125  22.9503672  28.4271129   9.9819197  31.8194515  41.2178252
   9.2882668  31.4048468  40.7048207  10.7292188  31.8615052  40.6211671
  26.1184417  22.6100702  36.0833286  25.5383086  23.2685506  35.7011339
  25.8520350  21.7878047  35.6720704  24.5687984  22.0105760  38.2854607
  25.0687762  22.1222294  37.4768926  25.2123592  21.7066813  38.9255415
  18.6269979  29.9184390  51.1722448  18.1437061  30.7184750  51.3786337
  18.7130919  29.9292334  50.2189892  11.8955939  31.7512769  39.0944267
  11.8726627  31.8500456  38.1426150  12.2056576  32.5977920  39.4161433
  14.5543317  33.8088924  43.2090882  15.5086571  33.7772867  43.1420813
  14.3555841  33.3479548  44.0241107  15.1442699  32.3790040  45.7761679
  15.9635588  32.8734119  45.7996516  15.4179507  31.4622008  45.7479247
  24.9009295  24.7700793  35.1389635  24.0135150  25.0550443  34.9209829
  25.3163284  24.6094556  34.2916912  28.2523831  24.7947314  38.8543974
  29.0284222  25.2843766  39.1268591  27.5271966  25.2205368  39.3115843
  30.6896390  25.5074933  39.9117915  31.2840881  25.2670669  39.2011223
  30.7622974  24.7882063  40.5391451  12.9093546  39.3508544  40.2261079
  12.7748014  38.5908945  39.6599077  12.4925608  40.0749444  39.7589868
  24.0452509  34.5345467  29.2337655  24.7488359  34.7395470  29.8495310
  23.3215158  35.1022229  29.4986738  24.8750319  30.2855329  35.3539925
  24.8185520  30.7423880  34.5147557  25.4278662  29.5246013  35.1762768
  28.6855125  26.0745060  36.1790044  28.4292059  25.6741696  37.0098252
  28.0607993  26.7888854  36.0540184  32.9967463  28.8141134  38.6861336
  32.4367021  28.8834323  39.4592898  32.3910966  28.6382118  37.9660832
  16.0662672  40.2477861  40.4379522  15.9495056  41.1923293  40.3358212
  15.2455118  39.9451422  40.8265321  25.9539206  34.9727996  31.2836115
  26.7884810  34.5409195  31.1013590  25.7923549  34.8010010  32.2113009
  25.6085098  31.4760110  32.6492454  25.5533902  31.3104381  31.7080898
  24.9831154  32.1836143  32.8054644  10.3977613  26.7128174  46.4753876
  11.0436477  26.2027128  46.9641101  10.1894764  27.4496856  47.0497302
  22.9231006  33.7809022  51.9746017  23.7922165  33.9549674  51.6132652
  22.4437757  34.6003438  51.8521746  18.9181224  20.9768219  32.2277772
  18.9059894  21.9210059  32.3846043  19.8104646  20.7938364  31.9337234
  17.0917186  40.9006123  43.6535450  17.9944432  40.9329733  43.9701945
  16.8654556  39.9706574  43.6681786  18.8470788  39.6537109  40.3145529
  17.8966419  39.6538971  40.2009901  19.1503274  38.9069844  39.7981564
  22.7333343  17.5710995  36.4823709  21.9665739  17.0169482  36.6280392
  23.1444048  17.6432864  37.3437861  14.7375104  23.8595791  50.5728891
  15.6006566  23.5032596  50.7832215  14.1640515  23.5209686  51.2604295
  31.3913188  45.4425076  41.3152816  31.0531699  45.3266140  40.4273351
  32.2602956  45.0416241  41.2953822  27.2500003  47.2960552  37.3049707
  26.6864868  47.2050489  36.5365995  27.1352398  46.4760457  37.7852200
  31.8732971  46.5959927  47.2739022  31.8621611  46.2012726  46.4019525
  32.0353610  45.8626000  47.8672793  24.7964435  48.7911744  40.1433928
  25.5885727  48.4502568  39.7280227  25.0361085  48.9006719  41.0636081
  32.8299562  50.9631520  32.6164172  32.1787542  51.5485600  32.2298186
  33.6243925  51.4937715  32.6759210  26.7555189  48.0520657  33.0151306
  27.5286065  47.5049644  32.8764182  27.1080588  48.9164906  33.2265768
  29.5196439  46.7573888  42.8119565  30.1160011  46.5329910  42.0976528
  29.5771410  46.0158633  43.4145013  29.0921467  44.2113323  30.6469756
  29.3446988  43.6894844  29.8853219  28.1546026  44.0479469  30.7496440
  34.3074827  48.6521952  33.1533156  33.6720660  48.7256578  33.8654061
  33.9772234  49.2415551  32.4752236  28.8117756  46.1141429  32.8494131
  28.6954014  45.4386332  33.5175216  28.9220016  45.6273803  32.0326284
  31.1549297  45.5751576  36.5540821  30.7907504  45.0482197  37.2653742
  32.0116413  45.1850045  36.3807306  37.0598597  36.8645909  43.8172087
  36.7281922  37.7341320  43.5933302  36.4644211  36.5482193  44.4966117
  30.7954784  40.6041476  31.5502169  30.9629186  41.4721712  31.9172640
  30.6051953  40.7668758  30.6263458  27.0042598  45.5172252  39.2504704
  26.0793095  45.3848466  39.4582396  27.2527011  46.2966471  39.7474646
  30.7744004  43.0599133  32.5348836  30.6543630  43.5056184  33.3734316
  30.0796593  43.4084451  31.9762374  24.3651409  45.1605525  40.0848493
  24.4943790  45.4140004  40.9987905  23.6848861  45.7533233  39.7653148
  28.5350897  55.8302775  36.1838967  28.4574926  56.7810600  36.2627448
  27.9312540  55.4848648  36.8413893  31.1100908  42.8917841  44.3724019
  31.9562104  43.3157255  44.5158668  31.0499546  42.2351465  45.0662583
  34.2600354  40.5522209  46.0305193  34.0161286  41.3064270  45.4939469
  34.5360284  40.9307557  46.8652440  33.8165045  39.7078642  41.6119031
  32.9549524  40.0059896  41.9035768  33.8427480  39.9249041  40.6800063
  30.6326615  48.2520833  38.0192836  31.0964960  48.5308536  37.2297459
  30.3683413  47.3504278  37.8365927  27.5250696  47.7992315  40.9572600
  28.0952053  48.2279583  40.3190084  28.1158808  47.5174899  41.6556785
  29.5695501  44.3743985  34.8282402  30.2719544  44.8265029  35.2956328
  29.2376129  43.7327804  35.4562295  28.0175862  42.9655742  49.2033611
  27.3874523  43.6472023  49.4369008  27.9111950  42.8538824  48.2586749
  23.3120835  42.6327538  40.1299535  22.5219889  42.8885067  39.6539646
  23.8032082  43.4475876  40.2351576  25.2635580  42.9972117  37.0883012
  24.4666743  43.1090812  37.6066508  25.0361172  43.3358770  36.2223902
  21.5958538  42.8858029  42.5614526  21.8466576  43.7705038  42.8272102
  22.1318086  42.7062630  41.7889618  30.8089265  51.1884928  34.9044507
  30.6734940  52.0336464  35.3329355  31.3499078  51.3904206  34.1410441
  27.2956605  37.2676508  51.5658862  26.9023551  36.7142706  52.2406506
  28.1122745  37.5787086  51.9565380  24.2618663  48.7060366  35.4772432
  24.7743183  49.5003616  35.6277997  24.9141376  48.0086657  35.4106033
  26.0713548  51.8226122  37.5595185  26.2480176  52.7444087  37.3716169
  26.8670381  51.5084542  37.9889565  30.2124566  38.6834387  49.1579119
  30.9534279  39.2841540  49.0783581  30.4442489  37.9412025  48.5997161
  25.3565904  43.8690754  47.4357348  25.2419419  42.9676011  47.7364447
  24.5010422  44.1154451  47.0842165  34.1581729  34.7115490  43.4343400
  33.8145998  35.6017132  43.3582511  34.5260692  34.5217148  42.5712985
  22.2267580  47.0349020  36.2532002  23.0642802  47.4446029  36.0365710
  22.4045847  46.0948463  36.2232196  31.7079123  39.5473802  37.0001074
  30.8520719  39.1580652  36.8206712  32.1206075  39.6265763  36.1400859
  33.2378269  37.0820145  41.3992634  32.7343065  37.0450280  40.5860439
  33.5308876  37.9912888  41.4589290  29.4821155  37.1658875  40.4058815
  30.3474152  36.9701683  40.0464705  29.5498664  36.9369227  41.3328172
  32.3564747  48.7341416  35.4168571  31.8286108  47.9994176  35.1041808
  31.8552250  49.5116093  35.1708539  27.0883474  39.3961083  37.7775182
  27.6627226  39.1736264  37.0448375  27.6754457  39.4649777  38.5303783
  27.4153062  41.4265544  31.7971067  26.5790374  41.7640230  32.1180342
  27.2757831  41.2914524  30.8598204  29.3906142  36.2702332  36.5050252
  28.7370554  35.9551349  35.8806866  29.3486616  35.6478072  37.2310074
  30.5017347  46.5521627  28.4203544  29.5944409  46.3210880  28.6194693
  30.9988379  45.7559246  28.6077525  33.4085426  55.2619134  31.3400230
  32.7347125  55.5650831  31.9485188  33.7951248  56.0648214  30.9905687
  32.6243882  42.7584265  40.8297899  31.7066444  42.9799212  40.6719587
  33.0404026  42.8330576  39.9709606  31.6805580  46.6534222  32.9427534
  30.7716800  46.3693254  33.0400003  31.7100664  47.0733300  32.0830841
  35.3557787  52.1017308  37.6468519  35.6480761  52.6622365  36.9280885
  35.8656408  52.3945869  38.4021678  22.2493751  44.3739736  36.9242736
  22.0518151  43.7809096  36.1993802  21.6940415  44.0691946  37.6418675
  30.2290474  44.2662842  39.0437329  30.2839084  43.3136679  38.9679806
  29.4181676  44.4222281  39.5278627  31.3781668  48.1942965  30.2815612
  30.9401098  47.4778824  29.8221250  32.1192109  48.4219080  29.7200704
  28.1682834  42.8839902  36.8027708  27.3550700  43.1834072  37.2092900
  28.6641829  42.4895591  37.5202190  30.3191412  52.8797659  38.7361973
  30.2767591  53.1058505  37.8070505  31.2354111  52.6461033  38.8847774
  27.6596909  40.4558257  42.4188943  28.2996288  40.3147017  41.7211906
  26.8274440  40.1692771  42.0427545  28.4357213  49.7560688  38.5323935
  29.2297812  49.2611008  38.3306510  27.7248905  49.2278551  38.1691641
  24.7439976  43.9003770  34.6083688  23.8137565  43.8388225  34.8253650
  24.8397448  43.3779722  33.8120329  24.6625526  40.4258582  37.1961930
  24.9232343  41.3403916  37.0871090  25.4842698  39.9583025  37.3458542
  26.1350451  41.8396340  44.3660754  26.8073504  41.6313702  43.7173403
  25.3080237  41.6418426  43.9265986  32.0376023  38.4658281  46.3826415
  31.3903938  39.1648230  46.2890891  32.8077038  38.8994424  46.7502663
  31.6076641  55.4298806  33.5547309  31.7828397  54.9586849  34.3692932
  30.9209429  56.0564572  33.7828570  35.4992896  47.0527347  29.8747670
  34.8822066  46.3274175  29.7780723  35.0309384  47.8136707  29.5314744
  29.1660249  44.8258902  44.6146871  29.8759867  44.1852094  44.5733489
  29.1229557  45.0771797  45.5373052  27.8789183  41.8124120  46.4342510
  27.3426540  41.3614858  47.0864107  27.2905891  41.9470029  45.6912975
  26.1737726  58.5788169  40.3287169  26.4134325  59.2106693  41.0066188
  25.3306923  58.2276209  40.6152528  27.2891442  41.2712771  28.9968974
  26.4120908  41.1501572  28.6331221  27.7649195  40.4798849  28.7447863
  18.8093582  46.0589931  39.0910481  19.4964622  45.7451661  38.5031497
  18.6541711  46.9631296  38.8177733  23.6128304  40.9480127  43.5195505
  23.5286493  40.3405797  42.7845915  22.7911010  41.4389146  43.5205001
  30.6865588  54.3867292  42.7328673  30.6135760  55.1922263  43.2447978
  30.2442981  54.5859257  41.9076694  30.4755368  53.6239062  36.2431495
  29.6922890  54.1660742  36.3369719  31.1748113  54.1413041  36.6425736
  33.7852018  39.4333691  38.8865700  34.2820717  38.6803653  38.5666770
  33.0138999  39.4698008  38.3208909  30.3686987  41.5751074  38.6137385
  29.9984774  41.0222114  39.3018290  30.8646079  40.9709207  38.0612385
  32.9584645  54.6252870  37.6373123  33.1407040  53.8074526  38.1000876
  33.7817631  54.8420562  37.1998013  33.2926811  53.5521055  34.8988172
  33.8214577  53.0413509  34.2858334  33.5555030  53.2363585  35.7633705
  26.6482558  54.6036171  37.6585948  25.9792934  55.0882299  37.1749988
  26.5095428  54.8505392  38.5729326  18.3861558  44.1390524  41.3627948
  18.4245658  43.6054115  42.1565066  17.8801851  43.6125730  40.7438926
  30.7887827  56.6379915  44.2568606  31.3406135  56.8011536  45.0217691
  31.1294021  57.2284353  43.5848631  25.7652320  38.9855065  44.8590491
  25.8293647  39.8469896  44.4467888  25.7019441  38.3729066  44.1262849
  25.2404593  41.0578197  48.5063525  25.8676632  40.6755275  49.1201049
  24.3832512  40.8392399  48.8719217  22.0170136  42.8654626  34.4381880
  22.3123577  41.9565305  34.3848933  21.1158171  42.8442366  34.1162882
  33.9256214  54.5861890  41.2432288  33.8007354  53.7851630  40.7343234
  34.5835305  55.0808084  40.7546258  25.5464383  40.9410623  40.4209428
  24.8250968  41.5546591  40.2816902  26.3357638  41.4768388  40.3426074
  28.3490696  38.2765049  46.6950080  28.8725098  38.5227346  47.4576389
  28.1303029  39.1085084  46.2753217  23.7457977  40.5468724  34.5621205
  23.4170683  39.6666103  34.3796311  24.0997348  40.4916393  35.4497594
  32.9937556  52.1823627  39.0716190  32.8462518  51.2540334  39.2523761
  33.8191050  52.2043717  38.5873266  26.8599800  40.8341694  34.9296683
  27.1995873  41.3627615  34.2075291  27.3071921  41.1722100  35.7055249
  29.5543241  39.2178745  44.3799751  29.2140062  38.4186558  44.7820431
  28.8482247  39.5180455  43.8076584  30.2059713  36.3028057  42.8327074
  31.0285782  35.8288535  42.7105964  30.4497776  37.0818541  43.3325760
  28.8467947  39.3316315  33.1289975  29.5676310  39.7097568  32.6253692
  28.2233252  40.0505192  33.2324953  32.9899070  40.0361464  34.0648308
  33.2062685  40.9186102  33.7637136  32.5093137  39.6447678  33.3353950
  27.7298292  42.9947178  40.6419052  27.5842872  43.3087481  41.5343334
  27.2523495  43.6132078  40.0889951  29.5894675  39.9849726  40.6899942
  29.5756243  39.0890819  40.3532240  30.3067103  39.9920389  41.3238228
  31.4420805  40.4187066  42.7353069  31.1838583  41.3404136  42.7337400
  30.9105846  40.0217500  43.4253533  36.3866994  53.5237853  35.5143155
  36.5603872  52.9584275  34.7617007  36.8795885  54.3238748  35.3322645
  22.2043954  45.5352522  43.5806713  21.6597422  46.3112330  43.7126988
  23.0823304  45.8823327  43.4225835  28.9931571  38.8664106  35.9587512
  29.1147482  37.9380752  36.1578399  28.7033613  38.8802792  35.0465827
  31.8622761  36.5519016  39.0954232  31.8844458  36.6158349  38.1406211
  32.2790820  35.7123525  39.2894738  37.3742167  52.8404617  32.6140053
  38.0693071  53.4611310  32.8327368  37.7165317  51.9899969  32.8892431
  30.9574250  56.3576306  38.5022637  30.5179241  55.8652685  39.1955494
  31.7082367  55.8149274  38.2614712  23.4366589  52.5487847  38.5047265
  24.2624609  52.2491619  38.1245909  23.0860641  51.7795469  38.9537054
  28.4048123  51.9014315  40.5744939  27.7828132  51.2385020  40.2747166
  29.0752989  51.9275447  39.8918586  21.6375194  50.4674174  39.4636199
  20.8007103  50.0396348  39.2820200  21.6098840  50.6606617  40.4006990
  28.4772650  40.3796103  50.1677445  28.5260806  41.2558226  49.7855214
  29.0195164  39.8373496  49.5949088  27.9661629  50.4518239  34.0503399
  28.1149750  51.1353703  33.3970072  28.7728073  50.4323329  34.5652855
  30.7071939  41.1327476  46.9223803  29.8375248  41.4261042  46.6506392
  30.9431419  41.7167921  47.6431067  25.7214262  46.4783416  35.0564468
  25.4760304  45.5745746  35.2544678  25.8910177  46.4800567  34.1143946
  33.4110972  37.3507093  44.4389224  33.9292916  38.0868120  44.1135712
  33.0566105  37.6571086  45.2735983  24.9909910  42.2111774  32.5550629
  24.2979155  42.2856129  31.8990665  24.7461662  41.4472117  33.0772146
  33.6623567  33.7707375  39.9590120  33.9425320  33.1030564  40.5850547
  34.4474173  33.9636471  39.4464784  31.4657035  52.9466369  31.5215147
  30.8931002  53.5656556  31.0685618  32.0389829  53.4965731  32.0555068
  35.5546804  39.2780592  43.8921096  34.9596736  39.5585605  43.1967585
  35.2696501  39.7674493  44.6637837  34.6854295  53.2303519  32.6523729
  35.6184968  53.1649081  32.8556604  34.5977508  54.0659786  32.1938261
  31.8503834  44.2827182  28.8631199  32.7962938  44.1533390  28.9319617
  31.4718078  43.5441844  29.3400627  30.0346751  42.2077158  28.7986084
  29.1278206  41.9110271  28.8748798  30.3122732  41.9106976  27.9320371
  20.9524691  43.5283522  39.2485131  20.6327475  42.6748830  38.9559505
  20.4058119  43.7432100  40.0043098  24.7304599  46.2445963  42.9654637
  24.9490608  47.1763070  42.9842671  25.1430372  45.8853937  43.7509441
  31.6508816  36.7514048  34.9530326  30.8409545  36.4061133  35.3285572
  32.3393233  36.4421592  35.5417937  33.5799365  35.8292095  36.5754622
  34.1330403  36.2487548  37.2344645  33.8169451  34.9027843  36.6177578
  29.6032464  41.8179168  52.3557386  29.5029191  42.7673525  52.2869477
  29.3854006  41.4897407  51.4833456  28.8045535  39.0664093  28.9398063
  29.6664699  39.3918992  29.1993881  28.9895879  38.2795589  28.4271129
  20.8212951  47.1486433  41.2178252  20.1276422  46.7340386  40.7048207
  21.5685942  47.1906970  40.6211671  35.4081738  37.3397678  38.2854607
  35.9081517  37.4514212  37.4768926  36.0517346  37.0358730  38.9255415
  22.7349694  47.0804687  39.0944267  22.7120382  47.1792374  38.1426150
  23.0450330  47.9269838  39.4161433  34.8846263  49.8637385  29.2337655
  35.5882113  50.0687387  29.8495310  34.1608912  50.4314147  29.4986738
  26.9056426  55.5769778  40.4379522  26.7888810  56.5215211  40.3358212
  26.0848872  55.2743340  40.8265321  36.7932961  50.3019914  31.2836115
  37.6278565  49.8701113  31.1013590  36.6317304  50.1301928  32.2113009
  21.2371368  42.0420092  46.4753876  21.8830231  41.5319046  46.9641101
  21.0288519  42.7788773  47.0497302  29.7574978  36.3060136  32.2277772
  29.7453648  37.2501976  32.3846043  30.6498400  36.1230282  31.9337234
  27.9310940  56.2298040  43.6535450  28.8338187  56.2621651  43.9701945
  27.7048310  55.2998491  43.6681786  29.6864542  54.9829027  40.3145529
  28.7360173  54.9830888  40.2009901  29.9897028  54.2361761  39.7981564
  33.5727098  32.9002913  36.4823709  32.8059494  32.3461400  36.6280392
  33.9837803  32.9724782  37.3437861  25.5768859  39.1887709  50.5728891
  26.4400320  38.8324514  50.7832215  25.0034269  38.8501604  51.2604295
  35.6358190  64.1203661  40.1433928  36.4279482  63.7794486  39.7280227
  35.8754840  64.2298636  41.0636081  40.3590193  62.0865805  42.8119565
  40.9553765  61.8621828  42.0976528  40.4165165  61.3450551  43.4145013
  35.2045164  60.4897443  40.0848493  35.3337545  60.7431922  40.9987905
  34.5242615  61.0825151  39.7653148  39.3744651  71.1594693  36.1838967
  39.2968681  72.1102518  36.2627448  38.7706295  70.8140565  36.8413893
  38.3644450  63.1284232  40.9572600  38.9345807  63.5571501  40.3190084
  38.9552562  62.8466817  41.6556785  34.1514589  57.9619456  40.1299535
  33.3613643  58.2176984  39.6539646  34.6425837  58.7767794  40.2351576
  32.4352292  58.2149946  42.5614526  32.6860331  59.0996956  42.8272102
  32.9711841  58.0354548  41.7889618  35.1012417  64.0352284  35.4772432
  35.6136938  64.8295534  35.6277997  35.7535130  63.3378574  35.4106033
  36.9107302  67.1518040  37.5595185  37.0873930  68.0736005  37.3716169
  37.7064136  66.8376459  37.9889565  33.0661334  62.3640938  36.2532002
  33.9036556  62.7737946  36.0365710  33.2439602  61.4240380  36.2232196
  40.2299897  51.5994249  36.5050252  39.5764309  51.2843266  35.8806866
  40.1880371  50.9769990  37.2310074  44.2479180  70.5911052  31.3400230
  43.5740879  70.8942748  31.9485188  44.6345002  71.3940132  30.9905687
  33.0887505  59.7031653  36.9242736  32.8911905  59.1101014  36.1993802
  32.5334169  59.3983864  37.6418675  42.4470395  70.7590724  33.5547309
  42.6222151  70.2878767  34.3692932  41.7603184  71.3856490  33.7828570
  37.3771703  60.4430860  45.1263191  37.2391501  59.7111099  45.7274730
  38.2876626  60.3539760  44.8447379  37.0131481  73.9080087  40.3287169
  37.2528079  74.5398611  41.0066188  36.1700677  73.5568127  40.6152528
  29.6487336  61.3881849  39.0910481  30.3358376  61.0743579  38.5031497
  29.4935465  62.2923213  38.8177733  34.4522059  56.2772045  43.5195505
  34.3680247  55.6697715  42.7845915  33.6304765  56.7681063  43.5205001
  34.6337658  66.8976842  42.6423505  35.2191095  66.1520530  42.7751409
  34.4362496  67.2080798  43.5260169  37.4876313  69.9328089  37.6585948
  36.8186688  70.4174217  37.1749988  37.3489183  70.1797310  38.5729326
  29.2255312  59.4682442  41.3627948  29.2639412  58.9346033  42.1565066
  28.7195605  58.9417647  40.7438926  32.8563890  58.1946544  34.4381880
  33.1517331  57.2857223  34.3848933  31.9551926  58.1734284  34.1162882
  36.3858137  56.2702541  40.4209428  35.6644723  56.8838508  40.2816902
  37.1751393  56.8060305  40.3426074  34.5851732  55.8760642  34.5621205
  34.2564438  54.9958021  34.3796311  34.9391102  55.8208310  35.4497594
  39.8325325  54.1956024  35.9587512  39.9541236  53.2672670  36.1578399
  39.5427367  54.2094710  35.0465827  34.2760344  67.8779765  38.5047265
  35.1018364  67.5783537  38.1245909  33.9254396  67.1087387  38.9537054
  39.2441877  67.2306233  40.5744939  38.6221886  66.5676938  40.2747166
  39.9146744  67.2567365  39.8918586  32.4768949  65.7966091  39.4636199
  31.6400857  65.3688266  39.2820200  32.4492594  65.9898535  40.4006990
  36.5608017  61.8075334  35.0564468  36.3154059  60.9037664  35.2544678
  36.7303932  61.8092484  34.1143946  31.7918446  58.8575439  39.2485131
  31.4721230  58.0040747  38.9559505  31.2451874  59.0724017  40.0043098
  33.5743448  62.4096605  39.0944267  33.5514136  62.5084292  38.1426150
  33.8844085  63.2561755  39.4161433  34.5881055  70.0092379  40.2261079
  34.4535523  69.2492780  39.6599077  34.1713117  70.7333279  39.7589868
  37.7450181  70.9061696  40.4379522  37.6282565  71.8507129  40.3358212
  36.9242627  70.6035258  40.8265321  32.0765122  57.3712010  46.4753876
  32.7223986  56.8610963  46.9641101  31.8682273  58.1080691  47.0497302
  56.2610990  76.1481483  41.3791292  56.8989400  76.0288230  40.6754632
  56.1431833  77.0962327  41.4379244  53.5520480  77.2543763  47.2739022
  53.5409120  76.8596561  46.4019525  53.7141119  76.5209835  47.8672793
  54.5087071  81.6215355  32.6164172  53.8575051  82.2069436  32.2298186
  55.3031434  82.1521550  32.6759210  48.4342698  78.7104492  33.0151306
  49.2073574  78.1633479  32.8764182  48.7868097  79.5748742  33.2265768
  50.7708976  74.8697158  30.6469756  51.0234497  74.3478680  29.8853219
  49.8333535  74.7063304  30.7496440  55.9862336  79.3105787  33.1533156
  55.3508169  79.3840414  33.8654061  55.6559743  79.8999386  32.4752236
  61.2160686  73.8108170  39.3577478  61.9485858  73.2407387  39.5915308
  60.4600042  73.4229770  39.7983984  50.4905265  76.7725264  32.8494131
  50.3741523  76.0970168  33.5175216  50.6007525  76.2857638  32.0326284
  52.8336806  76.2335411  36.5540821  52.4695013  75.7066032  37.2653742
  53.6903922  75.8433881  36.3807306  52.4531513  73.7182969  32.5348836
  52.3331139  74.1640019  33.3734316  51.7584102  74.0668286  31.9762374
  50.2138406  86.4886610  36.1838967  50.1362435  87.4394436  36.2627448
  49.6100049  86.1432483  36.8413893  58.1516580  74.1904442  33.3629170
  59.0634436  74.4231829  33.1876867  57.6426227  74.7741486  32.8004249
  56.4357347  78.6129070  46.9990462  56.8440703  78.1711480  46.2545095
  55.7134609  78.0381697  47.2524655  56.7586162  79.1730260  40.7542751
  56.1295024  79.3375974  40.0518819  56.3711824  79.5871870  41.5253715
  60.6375394  80.1084698  38.1087115  59.9526432  80.4883600  37.5584148
  60.7219243  80.7180025  38.8419063  57.8926325  77.7544657  44.7082459
  58.1043221  78.3976417  44.0316840  57.8456074  76.9206974  44.2404389
  51.2483010  75.0327821  34.8282402  51.9507053  75.4848864  35.2956328
  50.9163638  74.3911640  35.4562295  59.0072153  80.6316613  42.8804816
  59.8289597  80.2296800  42.5987498  59.0034556  80.5284847  43.8320932
  67.0978146  76.9755361  39.2289787  66.3441855  76.4062759  39.0733792
  67.2325688  76.9418026  40.1760422  45.9406172  79.3644201  35.4772432
  46.4530692  80.1587452  35.6277997  46.5928885  78.6670492  35.4106033
  43.9055089  77.6932856  36.2532002  44.7430311  78.1029864  36.0365710
  44.0833356  76.7532298  36.2232196  55.8019521  75.3607936  31.9415835
  55.2866144  76.1312541  32.1804223  55.5296829  74.6873073  32.5648897
  60.7753795  78.1140291  33.8769009  59.9983238  77.7751451  33.4324171
  61.4545276  78.1192914  33.2023974  54.0352256  79.3925252  35.4168571
  53.5073617  78.6578011  35.1041808  53.5339758  80.1699928  35.1708539
  59.0145102  77.5874272  40.5335617  58.3568776  78.2773534  40.6215745
  59.8185501  77.9770704  40.8769603  57.8250561  75.9418645  38.5839559
  58.3382442  76.5748637  39.0861268  58.4751784  75.3419840  38.2182919
  49.0940570  72.0849379  31.7971067  48.2577883  72.4224066  32.1180342
  48.9545340  71.9498359  30.8598204  52.1804856  77.2105462  28.4203544
  51.2731918  76.9794715  28.6194693  52.6775888  76.4143081  28.6077525
  55.0872935  85.9202969  31.3400230  54.4134634  86.2234666  31.9485188
  55.4738757  86.7232050  30.9905687  55.0866439  74.8159516  35.9600579
  55.8338258  75.3280913  35.6507701  55.3558029  74.4943569  36.8204973
  53.3593089  77.3118057  32.9427534  52.4504309  77.0277090  33.0400003
  53.3888173  77.7317135  32.0830841  58.5912357  80.9224646  36.7118701
  58.1374684  80.0815556  36.7683892  57.9606324  81.5586045  37.0493481
  57.0345296  82.7601143  37.6468519  57.3268270  83.3206200  36.9280885
  57.5443917  83.0529704  38.4021678  43.9281260  75.0323571  36.9242736
  43.7305660  74.4392932  36.1993802  43.3727924  74.7275781  37.6418675
  53.0569177  78.8526801  30.2815612  52.6188607  78.1362660  29.8221250
  53.7979618  79.0802915  29.7200704  49.8470343  73.5423737  36.8027708
  49.0338209  73.8417908  37.2092900  50.3429338  73.1479426  37.5202190
  61.1742292  77.1283998  36.3391931  61.0360191  77.3185594  35.4113120
  60.8178511  77.8903380  36.7959982  61.2011672  79.1960525  41.3503202
  61.6348178  79.1035814  42.1986256  61.9143252  79.1718025  40.7123218
  46.4227485  74.5587605  34.6083688  45.4925074  74.4972060  34.8253650
  46.5184957  74.0363558  33.8120329  62.0627221  79.2384225  43.8836088
  62.2563111  80.1430036  44.1295363  61.9627839  78.7791644  44.7174673
  57.1242330  79.3890968  49.4576968  56.9727836  79.1601520  48.5407052
  57.1147009  80.3461569  49.4708313  53.8927666  76.9622881  44.4423235
  54.8219726  77.1134040  44.2692202  53.4718696  77.0506902  43.5871881
  53.2864150  86.0882642  33.5547309  53.4615906  85.6170685  34.3692932
  52.5996938  86.7148408  33.7828570  57.1780405  77.7111182  29.8747670
  56.5609575  76.9858010  29.7780723  56.7096893  78.4720543  29.5314744
  58.8334536  82.4210091  47.5353450  58.7747083  81.7369311  46.8684033
  59.2354055  83.1629081  47.0834076  47.8525235  89.2372004  40.3287169
  48.0921833  89.8690529  41.0066188  47.0094432  88.8860044  40.6152528
  48.9678951  71.9296607  28.9968974  48.0908417  71.8085407  28.6331221
  49.4436704  71.1382685  28.7447863  58.8351944  80.3849675  45.7667430
  57.9478722  80.0475596  45.8893829  59.4050495  79.6532706  46.0036195
  40.4881091  76.7173766  39.0910481  41.1752131  76.4035496  38.5031497
  40.3329220  77.6215131  38.8177733  63.3169284  75.7957892  40.5283992
  63.3059161  76.6782607  40.1577925  62.4486664  75.4429443  40.3338529
  56.5469308  78.8489214  36.4604123  55.6125586  78.9690676  36.2908828
  56.7245976  77.9461680  36.1964133  59.9341859  74.6906533  36.9954158
  60.4002311  75.5234524  36.9214460  60.3849359  74.2251514  37.6999416
  58.0018090  81.0350354  33.9940310  58.2777934  80.9206949  34.9034184
  57.1322589  80.6367839  33.9552483  54.9714320  84.2104890  34.8988172
  55.5002086  83.6997345  34.2858334  55.2342539  83.8947420  35.7633705
  53.7252553  75.9896823  50.0210990  53.0493190  75.8890952  50.6913365
  54.5480187  75.8336037  50.4846987  45.4731412  82.2268759  42.6423505
  46.0584849  81.4812447  42.7751409  45.2756251  82.5372716  43.5260169
  57.3186210  82.1225008  50.1117260  57.8626114  82.7354966  49.6172215
  56.7373055  82.6804586  50.6284273  43.6957645  73.5238462  34.4381880
  43.9911086  72.6149140  34.3848933  42.7945680  73.5026201  34.1162882
  45.4245486  71.2052559  34.5621205  45.0958192  70.3249938  34.3796311
  45.7784857  71.1500228  35.4497594  48.5387309  71.4925529  34.9296683
  48.8783382  72.0211450  34.2075291  48.9859430  71.8305935  35.7055249
  58.2759187  83.6636021  40.1581063  59.2005734  83.4578882  40.0205514
  58.1074490  83.4152422  41.0670405  58.0654503  84.1821688  35.5143155
  58.2391381  83.6168111  34.7617007  58.5583394  84.9822583  35.3322645
  63.9193894  76.9458111  37.1333454  64.3625040  76.1965436  36.7352578
  63.0420405  76.9368248  36.7507186  59.0529676  83.4988453  32.6140053
  59.7480580  84.1195145  32.8327368  59.3952826  82.6483804  32.8892431
  44.6697485  75.3206254  46.4736870  43.9279221  75.4688889  47.0601501
  44.3490229  75.5814519  45.6103620  60.9521099  80.9488158  34.1427384
  61.4772423  81.2875431  33.4176704  60.8643451  80.0135174  33.9590518
  52.6361759  87.0160142  38.5022637  52.1966750  86.5236520  39.1955494
  53.3869876  86.4733109  38.2614712  45.1154098  83.2071682  38.5047265
  45.9412118  82.9075454  38.1245909  44.7648150  82.4379305  38.9537054
  43.3162703  81.1258009  39.4636199  42.4794612  80.6980183  39.2820200
  43.2886349  81.3190452  40.4006990  60.6415005  81.5821062  49.4478582
  59.8510548  81.5645201  48.9083081  60.4048359  82.1209356  50.2027618
  60.7612880  78.4313528  46.7611310  60.8110885  78.2663536  47.7026833
  60.6526803  77.5640787  46.3709191  49.6449138  81.1102074  34.0503399
  49.7937259  81.7937538  33.3970072  50.4515582  81.0907164  34.5652855
  58.0516642  74.4144456  48.0770617  58.9526505  74.2750921  47.7854615
  58.1264617  74.5798911  49.0168794  62.2631077  80.8510470  47.0053332
  61.9715885  81.2140450  47.8416793  61.6503208  80.1377478  46.8266664
  63.4626759  78.4163350  39.5255902  64.2973650  78.8553154  39.6893462
  63.5985888  77.9402003  38.7064148  47.4001771  77.1367252  35.0564468
  47.1547813  76.2329582  35.2544678  47.5697686  77.1384402  34.1143946
  46.6697419  72.8695609  32.5550629  45.9766664  72.9439964  31.8990665
  46.4249171  72.1055953  33.0772146  53.1444544  83.6050204  31.5215147
  52.5718511  84.2240392  31.0685618  53.7177338  84.1549566  32.0555068
  56.3641804  83.8887355  32.6523729  57.2972477  83.8232916  32.8556604
  56.2765017  84.7243621  32.1938261  58.9929820  83.2053225  29.6127676
  58.9143452  82.8713088  30.5063434  59.8139487  83.6974993  29.6119149
  61.6908012  76.0714964  42.8203995  61.6584332  75.1330965  43.0063679
  62.3008635  76.1499001  42.0869820  53.5291342  74.9411017  28.8631199
  54.4750447  74.8117225  28.9319617  53.1505587  74.2025679  29.3400627
  67.5084561  77.1330971  41.9610032  68.2387950  76.8716259  42.5217735
  66.8991507  76.3959693  42.0012100  65.5899859  75.2738834  42.5584483
  64.8633022  75.1394799  41.9500975  65.1747145  75.5815662  43.3641201
  53.4130035  78.9928763  50.3231856  54.3333045  79.1707362  50.5171903
  53.3779618  78.0484809  50.1711555  51.7134260  72.8660994  28.7986084
  50.8065715  72.5694106  28.8748798  51.9910241  72.5690812  27.9320371
  42.5000460  77.8070268  41.2178252  41.8063931  77.3924221  40.7048207
  43.2473451  77.8490805  40.6211671  51.1451243  75.9060143  51.1722448
  50.6618325  76.7060503  51.3786337  51.2312182  75.9168087  50.2189892
  44.4137203  77.7388522  39.0944267  44.3907891  77.8376210  38.1426150
  44.7237839  78.5853673  39.4161433  60.7705095  70.7823067  38.8543974
  61.5465485  71.2719519  39.1268591  60.0453229  71.2081121  39.3115843
  63.2077654  71.4950686  39.9117915  63.8022144  71.2546422  39.2011223
  63.2804237  70.7757816  40.5391451  45.4274809  85.3384297  40.2261079
  45.2929277  84.5784698  39.6599077  45.0106871  86.0625197  39.7589868
  56.5633772  80.5221220  29.2337655  57.2669622  80.7271223  29.8495310
  55.8396421  81.0897982  29.4986738  57.3931583  76.2731082  35.3539925
  57.3366784  76.7299633  34.5147557  57.9459925  75.5121766  35.1762768
  65.5148726  74.8016887  38.6861336  64.9548284  74.8710076  39.4592898
  64.9092230  74.6257871  37.9660832  58.4720470  80.9603749  31.2836115
  59.3066074  80.5284948  31.1013590  58.3104813  80.7885763  32.2113009
  58.1266362  77.4635863  32.6492454  58.0715166  77.2980134  31.7080898
  57.5012417  78.1711896  32.8054644  55.4412269  79.7684775  51.9746017
  56.3103429  79.9425427  51.6132652  54.9619020  80.5879191  51.8521746
  67.1004745  91.4773401  41.3791292  67.7383155  91.3580148  40.6754632
  66.9825588  92.4254245  41.4379244  59.7681267  93.2836305  37.3049707
  59.2046132  93.1926242  36.5365995  59.6533662  92.4636210  37.7852200
  64.3914234  92.5835680  47.2739022  64.3802875  92.1888479  46.4019525
  64.5534873  91.8501753  47.8672793  57.3145699  94.7787497  40.1433928
  58.1066991  94.4378321  39.7280227  57.5542349  94.8882472  41.0636081
  65.3480825  96.9507273  32.6164172  64.6968805  97.5361353  32.2298186
  66.1425188  97.4813468  32.6759210  59.2736453  94.0396410  33.0151306
  60.0467329  93.4925397  32.8764182  59.6261851  94.9040659  33.2265768
  61.1121495  95.3672792  46.2218206  60.8211361  96.2718423  46.1064872
  61.7478480  95.4089320  46.9362275  62.0377702  92.7449641  42.8119565
  62.6341274  92.5205663  42.0976528  62.0952674  92.0034386  43.4145013
  61.6102730  90.1989076  30.6469756  61.8628251  89.6770597  29.8853219
  60.6727289  90.0355222  30.7496440  66.6546013  89.2024854  38.4544500
  67.4409102  88.7844278  38.1034917  66.9184718  90.1070947  38.6226148
  66.8256091  94.6397705  33.1533156  66.1901924  94.7132331  33.8654061
  66.4953497  95.2291304  32.4752236  72.0554440  89.1400088  39.3577478
  72.7879612  88.5699304  39.5915308  71.2993796  88.7521688  39.7983984
  61.3299019  92.1017182  32.8494131  61.2135277  91.4262085  33.5175216
  61.4401279  91.6149556  32.0326284  63.6730560  91.5627329  36.5540821
  63.3088767  91.0357950  37.2653742  64.5297676  91.1725798  36.3807306
  69.5779861  82.8521662  43.8172087  69.2463185  83.7217073  43.5933302
  68.9825474  82.5357946  44.4966117  63.3136047  86.5917229  31.5502169
  63.4810449  87.4597465  31.9172640  63.1233216  86.7544511  30.6263458
  66.0711380  95.0534208  43.2167999  65.7712103  95.9559247  43.1083807
  65.7262440  94.7866391  44.0689152  59.5223862  91.5048005  39.2504704
  58.5974358  91.3724219  39.4582396  59.7708275  92.2842224  39.7474646
  69.4708524  87.5716748  40.8965437  68.5625401  87.5032156  40.6024198
  69.4196120  88.0488693  41.7247262  63.2925268  89.0474886  32.5348836
  63.1724893  89.4931937  33.3734316  62.5977856  89.3960204  31.9762374
  56.8832673  91.1481278  40.0848493  57.0125054  91.4015757  40.9987905
  56.2030124  91.7408986  39.7653148  61.0532160 101.8178528  36.1838967
  60.9756190 102.7686353  36.2627448  60.4493804 101.4724401  36.8413893
  63.5449390  88.9906394  48.8400334  62.7682724  89.5500314  48.8303199
  64.1839953  89.4763177  49.3615204  71.3370170  85.7733186  42.6743311
  70.6944551  86.0665719  42.0283105  70.8325099  85.6586107  43.4796507
  68.9910334  89.5196360  33.3629170  69.9028190  89.7523746  33.1876867
  68.4819981  90.1033404  32.8004249  61.7995762  91.7991847  48.4018301
  62.5410446  92.3376891  48.1253125  61.0932748  92.4258136  48.5589853
  67.2751102  93.9420987  46.9990462  67.6834458  93.5003398  46.2545095
  66.5528363  93.3673615  47.2524655  63.6282172  88.8793594  44.3724019
  64.4743367  89.3033008  44.5158668  63.5680809  88.2227218  45.0662583
  67.5979916  94.5022178  40.7542751  66.9688779  94.6667892  40.0518819
  67.2105578  94.9163788  41.5253715  71.4769148  95.4376616  38.1087115
  70.7920186  95.8175517  37.5584148  71.5612998  96.0471942  38.8419063
  66.7781617  86.5397962  46.0305193  66.5342549  87.2940023  45.4939469
  67.0541548  86.9183310  46.8652440  68.7320080  93.0836575  44.7082459
  68.9436975  93.7268335  44.0316840  68.6849828  92.2498891  44.2404389
  66.3346309  85.6954395  41.6119031  65.4730788  85.9935649  41.9035768
  66.3608744  85.9124794  40.6800063  63.1507878  94.2396586  38.0192836
  63.6146224  94.5184289  37.2297459  62.8864676  93.3380031  37.8365927
  60.0431959  93.7868068  40.9572600  60.6133316  94.2155336  40.3190084
  60.6340071  93.5050652  41.6556785  62.0876764  90.3619738  34.8282402
  62.7900808  90.8140782  35.2956328  61.7557393  89.7203557  35.4562295
  60.5357126  88.9531495  49.2033611  59.9055786  89.6347776  49.4369008
  60.4293214  88.8414577  48.2586749  55.8302098  88.6203291  40.1299535
  55.0401152  88.8760820  39.6539646  56.3213346  89.4351629  40.2351576
  69.8465908  95.9608530  42.8804816  70.6683352  95.5588718  42.5987498
  69.8428311  95.8576764  43.8320932  57.7816844  88.9847870  37.0883012
  56.9848007  89.0966565  37.6066508  57.5542436  89.3234523  36.2223902
  63.6122511  95.5092574  45.0365526  63.6766944  95.9712981  45.8723698
  62.9033435  94.8789938  45.1647836  54.1139801  88.8733782  42.5614526
  54.3647840  89.7580791  42.8272102  54.6499350  88.6938383  41.7889618
  77.9371901  92.3047279  39.2289787  77.1835609  91.7354677  39.0733792
  78.0719442  92.2709943  40.1760422  63.3270529  97.1760681  34.9044507
  63.1916204  98.0212217  35.3329355  63.8680341  97.3779959  34.1410441
  59.8137869  83.2552261  51.5658862  59.4204814  82.7018459  52.2406506
  60.6304009  83.5662839  51.9565380  56.7799926  94.6936119  35.4772432
  57.2924447  95.4879369  35.6277997  57.4322639  93.9962410  35.4106033
  58.5894811  97.8101875  37.5595185  58.7661439  98.7319840  37.3716169
  59.3851645  97.4960295  37.9889565  62.7305830  84.6710140  49.1579119
  63.4715543  85.2717293  49.0783581  62.9623752  83.9287778  48.5997161
  57.8747168  89.8566507  47.4357348  57.7600683  88.9551764  47.7364447
  57.0191685  90.1030204  47.0842165  64.9539005  97.7984248  49.0344849
  64.5102860  97.0120626  48.7165753  65.6156219  97.9863398  48.3688740
  59.7126127  99.3280049  43.5605527  60.2633552  99.1997113  42.7882521
  58.8737602  99.6274938  43.2100420  67.0520243  98.0787047  47.0626250
  67.0338719  98.8995929  46.5706519  67.9740163  97.9541123  47.2876391
  63.5093298  95.5931177  47.9049759  64.0421634  94.8319465  47.6749067
  62.9807379  95.3004829  48.6473913  66.6762993  80.6991243  43.4343400
  66.3327262  81.5892885  43.3582511  67.0441955  80.5092901  42.5712985
  54.7448843  93.0224773  36.2532002  55.5824065  93.4321782  36.0365710
  54.9227111  92.0824216  36.2232196  66.6413275  90.6899854  31.9415835
  66.1259899  91.4604459  32.1804223  66.3690584  90.0164990  32.5648897
  64.2260386  85.5349555  37.0001074  63.3701983  85.1456405  36.8206712
  64.6387338  85.6141516  36.1400859  65.7559533  83.0695898  41.3992634
  65.2524328  83.0326033  40.5860439  66.0490140  83.9788641  41.4589290
  62.0002419  83.1534628  40.4058815  62.8655416  82.9577436  40.0464705
  62.0679928  82.9244980  41.3328172  71.6147549  93.4432209  33.8769009
  70.8376992  93.1043368  33.4324171  72.2939030  93.4484832  33.2023974
  66.4299578  88.5626946  33.7675617  66.1249714  88.8773095  34.6185760
  67.3830021  88.6408366  33.8102950  64.8746010  94.7217169  35.4168571
  64.3467372  93.9869929  35.1041808  64.3733513  95.4991846  35.1708539
  69.8538856  92.9166190  40.5335617  69.1962531  93.6065451  40.6215745
  70.6579255  93.3062622  40.8769603  59.6064738  85.3836836  37.7775182
  60.1808490  85.1612017  37.0448375  60.1935720  85.4525530  38.5303783
  68.6644315  91.2710563  38.5839559  69.1776197  91.9040554  39.0861268
  69.3145539  90.6711758  38.2182919  59.9334325  87.4141297  31.7971067
  59.0971637  87.7515983  32.1180342  59.7939095  87.2790277  30.8598204
  61.9087406  82.2578085  36.5050252  61.2551818  81.9427102  35.8806866
  61.8667880  81.6353825  37.2310074  63.0198610  92.5397380  28.4203544
  62.1125672  92.3086633  28.6194693  63.5169642  91.7434999  28.6077525
  65.9266689 101.2494887  31.3400230  65.2528388 101.5526584  31.9485188
  66.3132511 102.0523967  30.9905687  65.1425146  88.7460018  40.8297899
  64.2247707  88.9674965  40.6719587  65.5585290  88.8206329  39.9709606
  65.9260194  90.1451434  35.9600579  66.6732013  90.6572831  35.6507701
  66.1951783  89.8235487  36.8204973  64.1986844  92.6409975  32.9427534
  63.2898063  92.3569007  33.0400003  64.2281928  93.0609053  32.0830841
  69.4306111  96.2516564  36.7118701  68.9768438  95.4107474  36.7683892
  68.8000078  96.8877962  37.0493481  68.3739031  87.1808550  37.9419369
  67.6361788  86.6685936  38.2729611  68.6265804  86.7408932  37.1302646
  67.8739051  98.0893061  37.6468519  68.1662025  98.6498118  36.9280885
  68.3837671  98.3821622  38.4021678  68.4750658  79.9584802  38.5361138
  68.7809535  79.0982166  38.2487053  69.2003263  80.5502422  38.3360132
  54.7675014  90.3615489  36.9242736  54.5699414  89.7684849  36.1993802
  54.2121678  90.0567699  37.6418675  62.7471738  90.2538595  39.0437329
  62.8020348  89.3012432  38.9679806  61.9362940  90.4098034  39.5278627
  63.8962932  94.1818718  30.2815612  63.4582362  93.4654577  29.8221250
  64.6373373  94.4094833  29.7200704  60.6864098  88.8715655  36.8027708
  59.8731963  89.1709825  37.2092900  61.1823092  88.4771344  37.5202190
  62.8372676  98.8673412  38.7361973  62.7948855  99.0934258  37.8070505
  63.7535375  98.6336786  38.8847774  66.2838310  89.3357479  45.6342602
  66.6387697  89.5628953  46.4937068  66.9310441  89.6675856  45.0119857
  72.0136046  92.4575915  36.3391931  71.8753945  92.6477511  35.4113120
  71.6572265  93.2195298  36.7959982  60.1778173  86.4434010  42.4188943
  60.8177552  86.3022770  41.7211906  59.3455703  86.1568524  42.0427545
  72.0405426  94.5252442  41.3503202  72.4741933  94.4327731  42.1986256
  72.7537007  94.5009943  40.7123218  60.9538477  95.7436441  38.5323935
  61.7479075  95.2486761  38.3306510  60.2430169  95.2154304  38.1691641
  65.7733321  98.1254536  42.8836303  65.8270343  98.6945473  43.6514019
  64.9048102  98.2956421  42.5190340  57.2621240  89.8879523  34.6083688
  56.3318828  89.8263978  34.8253650  57.3578712  89.3655475  33.8120329
  57.1806789  86.4134335  37.1961930  57.4413606  87.3279669  37.0871090
  58.0023961  85.9458778  37.3458542  58.6531714  87.8272093  44.3660754
  59.3254768  87.6189455  43.7173403  57.8261501  87.6294179  43.9265986
  72.9020976  94.5676143  43.8836088  73.0956866  95.4721953  44.1295363
  72.8021594  94.1083562  44.7174673  64.5557286  84.4534034  46.3826415
  63.9085201  85.1523983  46.2890891  65.3258302  84.8870177  46.7502663
  67.9636084  94.7182886  49.4576968  67.8121591  94.4893437  48.5407052
  67.9540764  95.6753487  49.4708313  64.7321421  92.2914798  44.4423235
  65.6613481  92.4425958  44.2692202  64.3112451  92.3798819  43.5871881
  63.5309752  96.3165463  42.2121772  63.3920838  95.9484247  43.0847711
  62.7424349  96.8313102  42.0405730  64.1257904 101.4174559  33.5547309
  64.3009660 100.9462603  34.3692932  63.4390692 102.0440326  33.7828570
  65.0814968  95.6947066  39.6010610  64.7464800  95.6547836  40.4968260
  64.5818913  95.0291781  39.1281020  59.0559212  91.1014696  45.1263191
  58.9179010  90.3694934  45.7274730  59.9664135  91.0123596  44.8447379
  68.0174159  93.0403100  29.8747670  67.4003330  92.3149928  29.7780723
  67.5490648  93.8012460  29.5314744  61.6841512  90.8134655  44.6146871
  62.3941131  90.1727847  44.5733489  61.6410820  91.0647550  45.5373052
  69.6728291  97.7502008  47.5353450  69.6140837  97.0661228  46.8684033
  70.0747809  98.4920998  47.0834076  60.3970446  87.7999873  46.4342510
  59.8607803  87.3490611  47.0864107  59.8087155  87.9345782  45.6912975
  58.6918990 104.5663922  40.3287169  58.9315588 105.1982446  41.0066188
  57.8488186 104.2151962  40.6152528  59.8072705  87.2588524  28.9968974
  58.9302172  87.1377325  28.6331221  60.2830458  86.4674603  28.7447863
  69.6745698  95.7141592  45.7667430  68.7872477  95.3767514  45.8893829
  70.2444249  94.9824623  46.0036195  51.3274845  92.0465684  39.0910481
  52.0145885  91.7327414  38.5031497  51.1722974  92.9507049  38.8177733
  63.2046852 100.3743045  42.7328673  63.1317023 101.1798016  43.2447978
  62.7624245 100.5735010  41.9076694  62.9936631  99.6114815  36.2431495
  62.2104153 100.1536495  36.3369719  63.6929376 100.1288794  36.6425736
  66.3033281  85.4209444  38.8865700  66.8001981  84.6679406  38.5666770
  65.5320263  85.4573761  38.3208909  74.1563039  91.1249810  40.5283992
  74.1452915  92.0074525  40.1577925  73.2880418  90.7721360  40.3338529
  65.6645535 100.2729879  44.8886832  66.3773507 100.9077343  44.8162733
  65.1735564 100.3693745  44.0726834  67.3863062  94.1781131  36.4604123
  66.4519341  94.2982594  36.2908828  67.5639731  93.2753598  36.1964133
  62.8868250  87.5626827  38.6137385  62.5166038  87.0097867  39.3018290
  63.3827343  86.9584960  38.0612385  70.7735613  90.0198451  36.9954158
  71.2396066  90.8526442  36.9214460  71.2243114  89.5543432  37.6999416
  60.7157449  98.0224322  45.7092403  61.4166908  98.6560805  45.8621797
  60.2452564  98.3639054  44.9488042  68.8411845  96.3642272  33.9940310
  69.1171688  96.2498866  34.9034184  67.9716343  95.9659757  33.9552483
  68.7452276  82.3879038  41.0345059  67.8315356  82.6183264  41.2027266
  69.1745378  82.4717482  41.8859091  68.5158735  90.5768929  43.5344953
  67.8630185  90.8244837  42.8797406  68.8939115  89.7633068  43.2007430
  65.4765909 100.6128623  37.6373123  65.6588303  99.7950279  38.1000876
  66.2998895 100.8296315  37.1998013  65.8108074  99.5396808  34.8988172
  66.3395840  99.0289262  34.2858334  66.0736294  99.2239338  35.7633705
  64.5646308  91.3188741  50.0210990  63.8886945  91.2182870  50.6913365
  65.3873942  91.1627954  50.4846987  56.3125167  97.5560677  42.6423505
  56.8978604  96.8104365  42.7751409  56.1150005  97.8664634  43.5260169
  59.1663822 100.5911924  37.6585948  58.4974197 101.0758052  37.1749988
  59.0276692 100.8381145  38.5729326  50.9042821  90.1266277  41.3627948
  50.9426921  89.5929868  42.1565066  50.3983114  89.6001483  40.7438926
  63.3069091 102.6255668  44.2568606  63.8587399 102.7887289  45.0217691
  63.6475284 103.2160106  43.5848631  57.7585856  87.0453950  48.5063525
  58.3857895  86.6631028  49.1201049  56.9013775  86.8268152  48.8719217
  68.1579965  97.4516926  50.1117260  68.7019869  98.0646884  49.6172215
  67.5766810  98.0096504  50.6284273  54.5351399  88.8530379  34.4381880
  54.8304840  87.9441058  34.3848933  53.6339435  88.8318119  34.1162882
  66.4437478 100.5737644  41.2432288  66.3188617  99.7727383  40.7343234
  67.1016569 101.0683837  40.7546258  58.0645646  86.9286376  40.4209428
  57.3432232  87.5422344  40.2816902  58.8538902  87.4644141  40.3426074
  68.5072386  98.3746664  42.8711838  67.5602722  98.2552015  42.7990165
  68.8555159  97.4869162  42.9538100  60.8671960  84.2640803  46.6950080
  61.3906361  84.5103099  47.4576389  60.6484293  85.0960837  46.2753217
  56.2639241  86.5344477  34.5621205  55.9351947  85.6541856  34.3796311
  56.6178611  86.4792146  35.4497594  65.5118820  98.1699380  39.0716190
  65.3643782  97.2416087  39.2523761  66.3372313  98.1919471  38.5873266
  59.3781064  86.8217447  34.9296683  59.7177136  87.3503368  34.2075291
  59.8253184  87.1597853  35.7055249  69.1152941  98.9927939  40.1581063
  70.0399489  98.7870800  40.0205514  68.9468245  98.7444340  41.0670405
  62.0724505  85.2054498  44.3799751  61.7321325  84.4062311  44.7820431
  61.3663511  85.5056208  43.8076584  62.7240976  82.2903810  42.8327074
  63.5467046  81.8164288  42.7105964  62.9679040  83.0694294  43.3325760
  61.3649211  85.3192068  33.1289975  62.0857573  85.6973321  32.6253692
  60.7414515  86.0380945  33.2324953  65.5080334  86.0237217  34.0648308
  65.7243948  86.9061855  33.7637136  65.0274401  85.6323431  33.3353950
  60.2479555  88.9822931  40.6419052  60.1024136  89.2963234  41.5343334
  59.7704759  89.6007831  40.0889951  62.1075938  85.9725479  40.6899942
  62.0937507  85.0766572  40.3532240  62.8248366  85.9796142  41.3238228
  63.9602069  86.4062819  42.7353069  63.7019847  87.3279890  42.7337400
  63.4287109  86.0093253  43.4253533  68.9048258  99.5113606  35.5143155
  69.0785135  98.9460028  34.7617007  69.3977149 100.3114501  35.3322645
  54.7225217  91.5228275  43.5806713  54.1778685  92.2988083  43.7126988
  55.6004567  91.8699080  43.4225835  61.5112834  84.8539859  35.9587512
  61.6328745  83.9256505  36.1578399  61.2214876  84.8678545  35.0465827
  64.3804024  82.5394769  39.0954232  64.4025721  82.6034102  38.1406211
  64.7972083  81.6999278  39.2894738  74.7587649  92.2750029  37.1333454
  75.2018795  91.5257354  36.7352578  73.8814159  92.2660165  36.7507186
  69.8923430  98.8280370  32.6140053  70.5874335  99.4487063  32.8327368
  70.2346580  97.9775722  32.8892431  55.5091239  90.6498171  46.4736870
  54.7672975  90.7980807  47.0601501  55.1883984  90.9106437  45.6103620
  71.7914853  96.2780076  34.1427384  72.3166177  96.6167349  33.4176704
  71.7037206  95.3427091  33.9590518  63.4534902 100.1914150  46.2717260
  63.7622028  99.9463296  47.1439960  64.2510384 100.3960788  45.7836131
  63.4755514 102.3452059  38.5022637  63.0360504 101.8528438  39.1955494
  64.2263631 101.8025027  38.2614712  55.9547853  98.5363600  38.5047265
  56.7805873  98.2367372  38.1245909  55.6041905  97.7671223  38.9537054
  60.9229386  97.8890068  40.5744939  60.3009395  97.2260773  40.2747166
  61.5934253  97.9151200  39.8918586  54.1556458  96.4549927  39.4636199
  53.3188366  96.0272101  39.2820200  54.1280103  96.6482370  40.4006990
  60.9953914  86.3671856  50.1677445  61.0442069  87.2433979  49.7855214
  61.5376428  85.8249249  49.5949088  71.4808759  96.9112980  49.4478582
  70.6904303  96.8937118  48.9083081  71.2442114  97.4501273  50.2027618
  71.6006634  93.7605446  46.7611310  71.6504639  93.5955453  47.7026833
  71.4920558  92.8932705  46.3709191  60.4842893  96.4393992  34.0503399
  60.6331013  97.1229456  33.3970072  61.2909336  96.4199082  34.5652855
  68.8910397  89.7436374  48.0770617  69.7920259  89.6042839  47.7854615
  68.9658371  89.9090829  49.0168794  63.2253202  87.1203229  46.9223803
  62.3556511  87.4136795  46.6506392  63.4612682  87.7043674  47.6431067
  73.1024831  96.1802387  47.0053332  72.8109639  96.5432368  47.8416793
  72.4896962  95.4669396  46.8266664  74.3020513  93.7455267  39.5255902
  75.1367405  94.1845071  39.6893462  74.4379642  93.2693920  38.7064148
  71.3512019  91.3035002  45.4733390  71.8266141  91.4962648  44.6652241
  70.4277585  91.3594188  45.2276773  58.2395526  92.4659169  35.0564468
  57.9941568  91.5621499  35.2544678  58.4091440  92.4676320  34.1143946
  65.9292236  83.3382846  44.4389224  66.4474180  84.0743873  44.1135712
  65.5747369  83.6446839  45.2735983  57.5091173  88.1987527  32.5550629
  56.8160418  88.2731882  31.8990665  57.2642925  87.4347870  33.0772146
  66.1804830  79.7583128  39.9590120  66.4606584  79.0906317  40.5850547
  66.9655437  79.9512224  39.4464784  63.9838298  98.9342122  31.5215147
  63.4112266  99.5532309  31.0685618  64.5571092  99.4841484  32.0555068
  70.0513688  88.1800762  43.7061695  71.0031111  88.2798860  43.7273919
  69.8817139  87.3879031  44.2159780  68.0728068  85.2656345  43.8921096
  67.4778000  85.5461358  43.1967585  67.7877765  85.7550246  44.6637837
  67.2035558  99.2179272  32.6523729  68.1366231  99.1524834  32.8556604
  67.1158771 100.0535539  32.1938261  69.8323575  98.5345143  29.6127676
  69.7537206  98.2005006  30.5063434  70.6533242  99.0266910  29.6119149
  72.5301766  91.4006882  42.8203995  72.4978086  90.4622883  43.0063679
  73.1402390  91.4790919  42.0869820  64.3685097  90.2702935  28.8631199
  65.3144202  90.1409143  28.9319617  63.9899342  89.5317597  29.3400627
  72.6796255  88.1917925  42.8662278  72.1635303  87.4076382  42.6792207
  73.5636203  87.8636642  43.0308798  70.3406982  81.9358941  38.8258091
  70.1431803  81.6274029  39.7101423  70.9506687  82.6620580  38.9556021
  78.3478316  92.4622889  41.9610032  79.0781704  92.2008177  42.5217735
  77.7385261  91.7251611  42.0012100  76.4293613  90.6030751  42.5584483
  75.7026777  90.4686716  41.9500975  76.0140900  90.9107580  43.3641201
  64.2523790  94.3220681  50.3231856  65.1726799  94.4999280  50.5171903
  64.2173373  93.3776726  50.1711555  62.5528014  88.1952911  28.7986084
  61.6459470  87.8986024  28.8748798  62.8303995  87.8982729  27.9320371
  53.4705955  89.5159275  39.2485131  53.1508739  88.6624583  38.9559505
  52.9239383  89.7307853  40.0043098  57.2485862  92.2321716  42.9654637
  57.4671872  93.1638823  42.9842671  57.6611636  91.8729690  43.7509441
  64.1690080  82.7389801  34.9530326  63.3590808  82.3936886  35.3285572
  64.8574497  82.4297345  35.5417937  66.0980628  81.8167848  36.5754622
  66.6511667  82.2363301  37.2344645  66.3350715  80.8903596  36.6177578
  62.1213727  87.8054921  52.3557386  62.0210454  88.7549278  52.2869477
  61.9035269  87.4773160  51.4833456  61.3226799  85.0539846  28.9398063
  62.1845963  85.3794745  29.1993881  61.5077143  84.2671342  28.4271129
  53.3394215  93.1362186  41.2178252  52.6457686  92.7216139  40.7048207
  54.0867206  93.1782723  40.6211671  69.4759435  83.9268373  36.0833286
  68.8958104  84.5853177  35.7011339  69.2095368  83.1045718  35.6720704
  67.9263002  83.3273431  38.2854607  68.4262780  83.4389965  37.4768926
  68.5698610  83.0234483  38.9255415  61.9844997  91.2352060  51.1722448
  61.5012079  92.0352420  51.3786337  62.0705936  91.2460005  50.2189892
  55.2530957  93.0680440  39.0944267  55.2301645  93.1668127  38.1426150
  55.5631594  93.9145591  39.4161433  57.9118335  95.1256595  43.2090882
  58.8661588  95.0940537  43.1420813  57.7130859  94.6647219  44.0241107
  58.5017717  93.6957711  45.7761679  59.3210606  94.1901790  45.7996516
  58.7754525  92.7789679  45.7479247  68.2584313  86.0868463  35.1389635
  67.3710168  86.3718114  34.9209829  68.6738302  85.9262227  34.2916912
  71.6098849  86.1114984  38.8543974  72.3859240  86.6011437  39.1268591
  70.8846984  86.5373038  39.3115843  74.0471408  86.8242603  39.9117915
  74.6415899  86.5838339  39.2011223  74.1197992  86.1049734  40.5391451
  56.2668564 100.6676214  40.2261079  56.1323032  99.9076615  39.6599077
  55.8500626 101.3917114  39.7589868  67.4027527  95.8513138  29.2337655
  68.1063377  96.0563140  29.8495310  66.6790176  96.4189900  29.4986738
  68.2325337  91.6022999  35.3539925  68.1760538  92.0591551  34.5147557
  68.7853679  90.8413684  35.1762768  72.0430143  87.3912731  36.1790044
  71.7867077  86.9909367  37.0098252  71.4183011  88.1056525  36.0540184
  76.3542481  90.1308804  38.6861336  75.7942039  90.2001994  39.4592898
  75.7485984  89.9549789  37.9660832  59.4237690 101.5645531  40.4379522
  59.3070074 102.5090964  40.3358212  58.6030136 101.2619093  40.8265321
  69.3114224  96.2895667  31.2836115  70.1459828  95.8576866  31.1013590
  69.1498567  96.1177681  32.2113009  68.9660116  92.7927780  32.6492454
  68.9108920  92.6272052  31.7080898  68.3406172  93.5003813  32.8054644
  53.7552631  88.0295845  46.4753876  54.4011495  87.5194799  46.9641101
  53.5469782  88.7664526  47.0497302  66.2806024  95.0976692  51.9746017
  67.1497183  95.2717345  51.6132652  65.8012775  95.9171109  51.8521746
  62.2756242  82.2935889  32.2277772  62.2634912  83.2377729  32.3846043
  63.1679664  82.1106035  31.9337234  60.4492204 102.2173793  43.6535450
  61.3519450 102.2497404  43.9701945  60.2229574 101.2874244  43.6681786
  62.2045806 100.9704780  40.3145529  61.2541437 100.9706641  40.2009901
  62.5078292 100.2237514  39.7981564  66.0908361  78.8878666  36.4823709
  65.3240757  78.3337153  36.6280392  66.5019066  78.9600535  37.3437861
  58.0950122  85.1763462  50.5728891  58.9581584  84.8200267  50.7832215
  57.5215533  84.8377357  51.2604295  77.9398499 106.8065318  41.3791292
  78.5776909 106.6872066  40.6754632  77.8219342 107.7546162  41.4379244
  74.7488206 106.7592746  41.3152816  74.4106717 106.6433811  40.4273351
  75.6177974 106.3583911  41.2953822  70.6075021 108.6128223  37.3049707
  70.0439886 108.5218160  36.5365995  70.4927416 107.7928127  37.7852200
  75.2307989 107.9127598  47.2739022  75.2196629 107.5180396  46.4019525
  75.3928628 107.1793671  47.8672793  68.1539453 110.1079414  40.1433928
  68.9460745 109.7670239  39.7280227  68.3936103 110.2174389  41.0636081
  70.1130207 109.3688328  33.0151306  70.8861083 108.8217315  32.8764182
  70.4655606 110.2332577  33.2265768  71.9515250 110.6964710  46.2218206
  71.6605116 111.6010341  46.1064872  72.5872234 110.7381238  46.9362275
  72.8771457 108.0741558  42.8119565  73.4735029 107.8497581  42.0976528
  72.9346428 107.3326304  43.4145013  72.4496485 105.5280994  30.6469756
  72.7022006 105.0062515  29.8853219  71.5121044 105.3647139  30.7496440
  77.4939768 104.5316772  38.4544500  78.2802857 104.1136195  38.1034917
  77.7578472 105.4362864  38.6226148  77.6649845 109.9689622  33.1533156
  77.0295678 110.0424249  33.8654061  77.3347251 110.5583221  32.4752236
  82.8948195 104.4692005  39.3577478  83.6273367 103.8991222  39.5915308
  82.1387551 104.0813606  39.7983984  72.1692774 107.4309100  32.8494131
  72.0529032 106.7554003  33.5175216  72.2795034 106.9441474  32.0326284
  74.5124315 106.8919247  36.5540821  74.1482522 106.3649868  37.2653742
  75.3691430 106.5017716  36.3807306  80.4173615  98.1813579  43.8172087
  80.0856940  99.0508990  43.5933302  79.8219229  97.8649863  44.4966117
  74.1529802 101.9209147  31.5502169  74.3204204 102.7889383  31.9172640
  73.9626971 102.0836428  30.6263458  76.9105135 110.3826125  43.2167999
  76.6105858 111.2851164  43.1083807  76.5656194 110.1158309  44.0689152
  70.3617616 106.8339922  39.2504704  69.4368113 106.7016136  39.4582396
  70.6102029 107.6134142  39.7474646  80.3102279 102.9008666  40.8965437
  79.4019156 102.8324074  40.6024198  80.2589874 103.3780611  41.7247262
  74.1319022 104.3766804  32.5348836  74.0118648 104.8223855  33.3734316
  73.4371611 104.7252122  31.9762374  67.7226427 106.4773196  40.0848493
  67.8518808 106.7307675  40.9987905  67.0423879 107.0700904  39.7653148
  74.3843144 104.3198311  48.8400334  73.6076478 104.8792231  48.8303199
  75.0233707 104.8055094  49.3615204  82.1763925 101.1025104  42.6743311
  81.5338305 101.3957637  42.0283105  81.6718853 100.9878024  43.4796507
  79.8304089 104.8488277  33.3629170  80.7421945 105.0815664  33.1876867
  79.3213736 105.4325321  32.8004249  72.6389517 107.1283765  48.4018301
  73.3804201 107.6668809  48.1253125  71.9326502 107.7550053  48.5589853
  78.1144856 109.2712905  46.9990462  78.5228212 108.8295316  46.2545095
  77.3922118 108.6965533  47.2524655  74.4675926 104.2085512  44.3724019
  75.3137121 104.6324925  44.5158668  74.4074564 103.5519136  45.0662583
  78.4373671 109.8314096  40.7542751  77.8082533 109.9959810  40.0518819
  78.0499333 110.2455705  41.5253715  77.6175372 101.8689880  46.0305193
  77.3736304 102.6231941  45.4939469  77.8935302 102.2475228  46.8652440
  79.5713834 108.4128493  44.7082459  79.7830730 109.0560252  44.0316840
  79.5243583 107.5790809  44.2404389  77.1740063 101.0246313  41.6119031
  76.3124542 101.3227567  41.9035768  77.2002498 101.2416712  40.6800063
  73.9901633 109.5688504  38.0192836  74.4539978 109.8476207  37.2297459
  73.7258431 108.6671948  37.8365927  70.8825714 109.1159985  40.9572600
  71.4527071 109.5447254  40.3190084  71.4733826 108.8342570  41.6556785
  72.9270519 105.6911656  34.8282402  73.6294562 106.1432700  35.2956328
  72.5951147 105.0495475  35.4562295  71.3750880 104.2823413  49.2033611
  70.7449541 104.9639694  49.4369008  71.2686968 104.1706494  48.2586749
  66.6695853 103.9495209  40.1299535  65.8794907 104.2052737  39.6539646
  67.1607100 104.7643547  40.2351576  68.6210598 104.3139788  37.0883012
  67.8241761 104.4258482  37.6066508  68.3936190 104.6526440  36.2223902
  74.4516266 110.8384491  45.0365526  74.5160698 111.3004898  45.8723698
  73.7427190 110.2081856  45.1647836  64.9533556 104.2025699  42.5614526
  65.2041594 105.0872709  42.8272102  65.4893104 104.0230301  41.7889618
  70.6531623  98.5844179  51.5658862  70.2598569  98.0310377  52.2406506
  71.4697763  98.8954757  51.9565380  67.6193681 110.0228037  35.4772432
  68.1318201 110.8171287  35.6277997  68.2716394 109.3254327  35.4106033
  69.4288566 113.1393793  37.5595185  69.6055194 114.0611758  37.3716169
  70.2245399 112.8252212  37.9889565  73.5699584 100.0002058  49.1579119
  74.3109297 100.6009211  49.0783581  73.8017507  99.2579695  48.5997161
  68.7140922 105.1858425  47.4357348  68.5994437 104.2843682  47.7364447
  67.8585440 105.4322122  47.0842165  70.5519881 114.6571967  43.5605527
  71.1027306 114.5289030  42.7882521  69.7131357 114.9566856  43.2100420
  74.3487052 110.9223095  47.9049759  74.8815389 110.1611383  47.6749067
  73.8201133 110.6296746  48.6473913  77.5156747  96.0283161  43.4343400
  77.1721016  96.9184802  43.3582511  77.8835710  95.8384818  42.5712985
  65.5842598 108.3516691  36.2532002  66.4217820 108.7613699  36.0365710
  65.7620865 107.4116133  36.2232196  77.4807030 106.0191772  31.9415835
  76.9653653 106.7896376  32.1804223  77.2084338 105.3456908  32.5648897
  75.0654141 100.8641472  37.0001074  74.2095737 100.4748323  36.8206712
  75.4781093 100.9433433  36.1400859  76.5953287  98.3987816  41.3992634
  76.0918083  98.3617951  40.5860439  76.8883894  99.3080558  41.4589290
  72.8396173  98.4826545  40.4058815  73.7049170  98.2869354  40.0464705
  72.9073682  98.2536897  41.3328172  77.2693333 103.8918864  33.7675617
  76.9643468 104.2065013  34.6185760  78.2223775 103.9700284  33.8102950
  75.7139765 110.0509087  35.4168571  75.1861126 109.3161847  35.1041808
  75.2127267 110.8283763  35.1708539  70.4458492 100.7128753  37.7775182
  71.0202244 100.4903935  37.0448375  71.0329475 100.7817448  38.5303783
  79.5038070 106.6002480  38.5839559  80.0169951 107.2332472  39.0861268
  80.1539293 106.0003676  38.2182919  70.7728079 102.7433214  31.7971067
  69.9365392 103.0807901  32.1180342  70.6332849 102.6082194  30.8598204
  72.7481160  97.5870002  36.5050252  72.0945572  97.2719019  35.8806866
  72.7061634  96.9645743  37.2310074  75.9818900 104.0751936  40.8297899
  75.0641462 104.2966883  40.6719587  76.3979044 104.1498246  39.9709606
  76.7653948 105.4743352  35.9600579  77.5125767 105.9864749  35.6507701
  77.0345538 105.1527404  36.8204973  75.0380598 107.9701892  32.9427534
  74.1291818 107.6860925  33.0400003  75.0675682 108.3900971  32.0830841
  79.2132785 102.5100468  37.9419369  78.4755542 101.9977854  38.2729611
  79.4659559 102.0700849  37.1302646  79.3144413  95.2876720  38.5361138
  79.6203289  94.4274083  38.2487053  80.0397017  95.8794340  38.3360132
  65.6068769 105.6907406  36.9242736  65.4093169 105.0976767  36.1993802
  65.0515433 105.3859617  37.6418675  73.5865492 105.5830513  39.0437329
  73.6414102 104.6304349  38.9679806  72.7756694 105.7389952  39.5278627
  71.5257852 104.2007573  36.8027708  70.7125718 104.5001743  37.2092900
  72.0216847 103.8063261  37.5202190  77.1232064 104.6649397  45.6342602
  77.4781452 104.8920870  46.4937068  77.7704195 104.9967774  45.0119857
  71.0171927 101.7725928  42.4188943  71.6571306 101.6314687  41.7211906
  70.1849458 101.4860442  42.0427545  71.7932231 111.0728359  38.5323935
  72.5872829 110.5778679  38.3306510  71.0823923 110.5446222  38.1691641
  68.1014994 105.2171440  34.6083688  67.1712583 105.1555896  34.8253650
  68.1972466 104.6947393  33.8120329  68.0200544 101.7426253  37.1961930
  68.2807361 102.6571586  37.0871090  68.8417716 101.2750696  37.3458542
  69.4925469 103.1564010  44.3660754  70.1648522 102.9481372  43.7173403
  68.6655255 102.9586096  43.9265986  75.3951041  99.7825951  46.3826415
  74.7478956 100.4815901  46.2890891  76.1652056 100.2162095  46.7502663
  75.5715175 107.6206716  44.4423235  76.5007235 107.7717876  44.2692202
  75.1506205 107.7090737  43.5871881  74.3703507 111.6457381  42.2121772
  74.2314593 111.2776165  43.0847711  73.5818103 112.1605020  42.0405730
  75.9208722 111.0238983  39.6010610  75.5858555 110.9839753  40.4968260
  75.4212668 110.3583699  39.1281020  69.8952966 106.4306613  45.1263191
  69.7572764 105.6986852  45.7274730  70.8057890 106.3415513  44.8447379
  72.5235267 106.1426573  44.6146871  73.2334885 105.5019765  44.5733489
  72.4804575 106.3939467  45.5373052  71.2364201 103.1291790  46.4342510
  70.7001558 102.6782529  47.0864107  70.6480909 103.2637699  45.6912975
  70.6466460 102.5880442  28.9968974  69.7695926 102.4669243  28.6331221
  71.1224213 101.7966520  28.7447863  62.1668600 107.3757602  39.0910481
  62.8539640 107.0619332  38.5031497  62.0116729 108.2798966  38.8177733
  66.9703322 102.2647798  43.5195505  66.8861511 101.6573468  42.7845915
  66.1486028 102.7556816  43.5205001  77.1427036 100.7501362  38.8865700
  77.6395735  99.9971324  38.5666770  76.3714017 100.7865678  38.3208909
  78.2256817 109.5073049  36.4604123  77.2913095 109.6274511  36.2908828
  78.4033485 108.6045516  36.1964133  73.7262005 102.8918745  38.6137385
  73.3559792 102.3389785  39.3018290  74.2221097 102.2876878  38.0612385
  81.6129368 105.3490368  36.9954158  82.0789820 106.1818360  36.9214460
  82.0636868 104.8835350  37.6999416  71.5551203 113.3516240  45.7092403
  72.2560663 113.9852723  45.8621797  71.0846318 113.6930971  44.9488042
  79.5846031  97.7170955  41.0345059  78.6709110  97.9475182  41.2027266
  80.0139132  97.8009399  41.8859091  79.3552489 105.9060847  43.5344953
  78.7023939 106.1536755  42.8797406  79.7332869 105.0924985  43.2007430
  75.4040062 106.6480658  50.0210990  74.7280699 106.5474788  50.6913365
  76.2267696 106.4919872  50.4846987  67.1518921 112.8852595  42.6423505
  67.7372358 112.1396283  42.7751409  66.9543760 113.1956551  43.5260169
  61.7436576 105.4558195  41.3627948  61.7820675 104.9221786  42.1565066
  61.2376869 104.9293400  40.7438926  69.1227338 100.3022735  44.8590491
  69.1868665 101.1637566  44.4467888  69.0594459  99.6896737  44.1262849
  68.5979611 102.3745868  48.5063525  69.2251650 101.9922945  49.1201049
  67.7407530 102.1560070  48.8719217  65.3745154 104.1822297  34.4381880
  65.6698595 103.2732976  34.3848933  64.4733189 104.1610037  34.1162882
  68.9039401 102.2578294  40.4209428  68.1825986 102.8714261  40.2816902
  69.6932656 102.7936059  40.3426074  71.7065714  99.5932720  46.6950080
  72.2300116  99.8395017  47.4576389  71.4878047 100.4252755  46.2753217
  67.1032995 101.8636395  34.5621205  66.7745701 100.9833774  34.3796311
  67.4572366 101.8084063  35.4497594  70.2174818 102.1509365  34.9296683
  70.5570891 102.6795286  34.2075291  70.6646939 102.4889771  35.7055249
  72.9118259 100.5346415  44.3799751  72.5715079  99.7354228  44.7820431
  72.2057265 100.8348126  43.8076584  73.5634731  97.6195728  42.8327074
  74.3860800  97.1456206  42.7105964  73.8072794  98.3986211  43.3325760
  72.2042965 100.6483986  33.1289975  72.9251328 101.0265239  32.6253692
  71.5808270 101.3672863  33.2324953  76.3474088 101.3529135  34.0648308
  76.5637703 102.2353773  33.7637136  75.8668155 100.9615349  33.3353950
  71.0873310 104.3114848  40.6419052  70.9417890 104.6255151  41.5343334
  70.6098513 104.9299749  40.0889951  72.9469693 101.3017396  40.6899942
  72.9331261 100.4058490  40.3532240  73.6642121 101.3088060  41.3238228
  74.7995823 101.7354737  42.7353069  74.5413601 102.6571807  42.7337400
  74.2680864 101.3385171  43.4253533  65.5618972 106.8520193  43.5806713
  65.0172440 107.6280001  43.7126988  66.4398322 107.1990997  43.4225835
  72.3506589 100.1831777  35.9587512  72.4722500  99.2548423  36.1578399
  72.0608631 100.1970463  35.0465827  75.2197779  97.8686687  39.0954232
  75.2419476  97.9326020  38.1406211  75.6365838  97.0291196  39.2894738
  66.3484994 105.9790089  46.4736870  65.6066730 106.1272724  47.0601501
  66.0277738 106.2398355  45.6103620  66.7941607 113.8655518  38.5047265
  67.6199627 113.5659290  38.1245909  66.4435659 113.0963140  38.9537054
  71.7623141 113.2181986  40.5744939  71.1403150 112.5552691  40.2747166
  72.4328007 113.2443118  39.8918586  64.9950212 111.7841844  39.4636199
  64.1582121 111.3564019  39.2820200  64.9673858 111.9774288  40.4006990
  71.8347668 101.6963774  50.1677445  71.8835824 102.5725897  49.7855214
  72.3770182 101.1541167  49.5949088  71.3236647 111.7685909  34.0503399
  71.4724768 112.4521374  33.3970072  72.1303091 111.7490999  34.5652855
  79.7304151 105.0728292  48.0770617  80.6314014 104.9334757  47.7854615
  79.8052126 105.2382746  49.0168794  74.0646956 102.4495146  46.9223803
  73.1950266 102.7428712  46.6506392  74.3006437 103.0335591  47.6431067
  82.1905774 106.6326920  45.4733390  82.6659895 106.8254566  44.6652241
  81.2671339 106.6886106  45.2276773  69.0789280 107.7951087  35.0564468
  68.8335322 106.8913417  35.2544678  69.2485195 107.7968237  34.1143946
  76.7685990  98.6674763  44.4389224  77.2867934  99.4035790  44.1135712
  76.4141123  98.9738757  45.2735983  68.3484928 103.5279445  32.5550629
  67.6554173 103.6023800  31.8990665  68.1036680 102.7639788  33.0772146
  77.0198584  95.0875046  39.9590120  77.3000338  94.4198235  40.5850547
  77.8049191  95.2804141  39.4464784  78.9121822 100.5948263  43.8921096
  78.3171754 100.8753276  43.1967585  78.6271519 101.0842164  44.6637837
  75.2078851 105.5994853  28.8631199  76.1537956 105.4701061  28.9319617
  74.8293096 104.8609514  29.3400627  83.5190009 103.5209843  42.8662278
  83.0029058 102.7368300  42.6792207  84.4029958 103.1928560  43.0308798
  81.1800736  97.2650859  38.8258091  80.9825557  96.9565947  39.7101423
  81.7900442  97.9912497  38.9556021  75.0917544 109.6512599  50.3231856
  76.0120553 109.8291198  50.5171903  75.0567127 108.7068644  50.1711555
  73.3921769 103.5244829  28.7986084  72.4853224 103.2277942  28.8748798
  73.6697750 103.2274647  27.9320371  64.3099709 104.8451192  39.2485131
  63.9902493 103.9916501  38.9559505  63.7633137 105.0599770  40.0043098
  68.0879617 107.5613633  42.9654637  68.3065626 108.4930741  42.9842671
  68.5005390 107.2021608  43.7509441  75.0083834  98.0681719  34.9530326
  74.1984563  97.7228804  35.3285572  75.6968251  97.7589262  35.5417937
  76.9374383  97.1459765  36.5754622  77.4905421  97.5655219  37.2344645
  77.1744469  96.2195514  36.6177578  72.9607482 103.1346839  52.3557386
  72.8604209 104.0841196  52.2869477  72.7429024 102.8065078  51.4833456
  72.1620553 100.3831764  28.9398063  73.0239717 100.7086662  29.1993881
  72.3470897  99.5963260  28.4271129  64.1787969 108.4654104  41.2178252
  63.4851440 108.0508057  40.7048207  64.9260960 108.5074640  40.6211671
  80.3153190  99.2560291  36.0833286  79.7351859  99.9145095  35.7011339
  80.0489122  98.4337635  35.6720704  78.7656756  98.6565348  38.2854607
  79.2656534  98.7681883  37.4768926  79.4092364  98.3526401  38.9255415
  72.8238752 106.5643978  51.1722448  72.3405834 107.3644338  51.3786337
  72.9099691 106.5751923  50.2189892  66.0924712 108.3972358  39.0944267
  66.0695400 108.4960045  38.1426150  66.4025348 109.2437508  39.4161433
  68.7512089 110.4548513  43.2090882  69.7055343 110.4232455  43.1420813
  68.5524613 109.9939136  44.0241107  69.3411472 109.0249629  45.7761679
  70.1604361 109.5193707  45.7996516  69.6148279 108.1081597  45.7479247
  79.0978068 101.4160381  35.1389635  78.2103923 101.7010032  34.9209829
  79.5132057 101.2554144  34.2916912  82.4492604 101.4406902  38.8543974
  83.2252994 101.9303354  39.1268591  81.7240738 101.8664956  39.3115843
  84.8865163 102.1534521  39.9117915  85.4809653 101.9130257  39.2011223
  84.9591746 101.4341652  40.5391451  79.0719092 106.9314917  35.3539925
  79.0154293 107.3883468  34.5147557  79.6247434 106.1705602  35.1762768
  82.8823897 102.7204649  36.1790044  82.6260832 102.3201284  37.0098252
  82.2576765 103.4348443  36.0540184  79.8053871 108.1219698  32.6492454
  79.7502675 107.9563970  31.7080898  79.1799926 108.8295731  32.8054644
  64.5946386 103.3587763  46.4753876  65.2405249 102.8486717  46.9641101
  64.3863537 104.0956444  47.0497302  73.1149996  97.6227807  32.2277772
  73.1028666  98.5669647  32.3846043  74.0073418  97.4397953  31.9337234
  76.9302116  94.2170584  36.4823709  76.1634512  93.6629070  36.6280392
  77.3412821  94.2892453  37.3437861  68.9343877 100.5055380  50.5728891
  69.7975338 100.1492184  50.7832215  68.3609287 100.1669274  51.2604295
  23.7429728   7.1667852  28.1036598  24.3808138   7.0474600  27.3999938
  23.6250571   8.1148696  28.1624550  21.0339217   8.2730132  33.9984328
  21.0227858   7.8782931  33.1264832  21.1959857   7.5396205  34.5918100
  17.7546478  11.0567244  32.9463512  17.4636344  11.9612875  32.8310179
  18.3903463  11.0983772  33.6607582  18.6802685   8.4344093  29.5364872
  19.2766258   8.2100115  28.8221835  18.7377657   7.6928838  30.1390320
  22.7136364  10.7428660  29.9413306  22.4137087  11.6453698  29.8329113
  22.3687423  10.4760843  30.7934459  20.1874373   4.6800845  35.5645641
  19.4107707   5.2394766  35.5548505  20.8264936   5.1657628  36.0860511
  18.4420745   7.4886299  35.1263608  19.1835430   8.0271343  34.8498431
  17.7357731   8.1152588  35.2835159  23.9176085   9.6315439  33.7235769
  24.3259441   9.1897850  32.9790401  23.1953347   9.0568067  33.9769962
  20.2707155   4.5688046  31.0969326  21.1168350   4.9927460  31.2403975
  20.2105793   3.9121670  31.7907889  24.2404900  10.1916630  27.4788058
  23.6113762  10.3562344  26.7764126  23.8530562  10.6058239  28.2499022
  28.1194132  11.1271068  24.8332422  27.4345170  11.5069969  24.2829455
  28.2037981  11.7366394  25.5664370  23.4206600   2.2292414  32.7550500
  23.1767532   2.9834475  32.2184775  23.6966531   2.6077762  33.5897747
  25.3745063   8.7731027  31.4327765  25.5861958   9.4162787  30.7562146
  25.3274811   7.9393343  30.9649695  17.1782109   4.6425947  35.9278918
  16.5480770   5.3242228  36.1614314  17.0718197   4.5309029  34.9832056
  26.4890891  11.6502982  29.6050123  27.3108335  11.2483169  29.3232804
  26.4853294  11.5471216  30.5566238  20.2547495  11.1987025  31.7610833
  20.3191927  11.6607433  32.5969005  19.5458418  10.5684390  31.8893143
  34.5796884   7.9941731  25.9535094  33.8260593   7.4249129  25.7979099
  34.7144425   7.9604395  26.9005729  21.5963989  13.4878699  35.7590156
  21.1527843  12.7015078  35.4411060  22.2581202  13.6757850  35.0934046
  16.3551110  15.0174501  30.2850834  16.9058535  14.8891564  29.5127828
  15.5162586  15.3169390  29.9345727  23.6945227  13.7681499  33.7871557
  23.6763702  14.5890380  33.2951826  24.6165147  13.6435575  34.0121698
  20.1518281  11.2825629  34.6295065  20.6846618  10.5213917  34.3994373
  19.6232362  10.9899281  35.3719220  26.4963840   8.6060642  27.2580923
  25.8387514   9.2959903  27.3461052  27.3004239   8.9957074  27.6014910
  24.5164034  13.7787513  24.3713826  24.8087008  14.3392570  23.6526192
  25.0262654  14.0716074  25.1266985  22.9263293   5.0251931  32.3587908
  23.2812681   5.2523404  33.2182374  23.5735424   5.3570308  31.7365164
  28.6830409  10.2146894  28.0748509  29.1166916  10.1222183  28.9231563
  29.3961990  10.1904395  27.4368525  22.4158304  13.8148988  29.6081610
  22.4695327  14.3839925  30.3759325  21.5473086  13.9850873  29.2435647
  29.5445959  10.2570595  30.6081394  29.7381849  11.1616405  30.8540669
  29.4446577   9.7978014  31.4419979  24.6061068  10.4077338  36.1822275
  24.4546574  10.1787889  35.2652359  24.5965747  11.3647939  36.1953620
  21.3746404   7.9809250  31.1668541  22.3038464   8.1320410  30.9937509
  20.9537434   8.0693271  30.3117188  20.1734736  12.0059915  28.9367079
  20.0345821  11.6378699  29.8093017  19.3849332  12.5207554  28.7651037
  15.6984195   6.7909147  31.8508498  15.5603993   6.0589386  32.4520037
  16.6089118   6.7018048  31.5692686  18.3266496   6.5029107  31.3392178
  19.0366114   5.8622299  31.2978796  18.2835804   6.7542002  32.2618358
  26.3153274  13.4396460  34.2598757  26.2565820  12.7555680  33.5929340
  26.7172793  14.1815450  33.8079383  15.3343973  20.2558374  27.0532476
  15.5740571  20.8876898  27.7311494  14.4913170  19.9046414  27.3397835
  26.3170682  11.4036044  32.4912737  25.4297460  11.0661966  32.6139135
  26.8869233  10.6719075  32.7281502  19.8471835  16.0637496  29.4573980
  19.7742006  16.8692468  29.9693284  19.4049228  16.2629462  28.6322001
  30.7988022   6.8144261  27.2529298  30.7877898   7.6968977  26.8823231
  29.9305401   6.4615812  27.0583835  22.3070518  15.9624330  31.6132138
  23.0198491  16.5971795  31.5408040  21.8160547  16.0588196  30.7972140
  17.3582432  13.7118774  32.4337709  18.0591891  14.3455257  32.5867103
  16.8877547  14.0533505  31.6733348  25.1583718   6.2663381  30.2590260
  24.5055168   6.5139289  29.6042712  25.5364098   5.4527520  29.9252737
  22.1190892  16.3023075  24.3618430  22.3013286  15.4844730  24.8246182
  22.9423878  16.5190767  23.9243320  21.2071291   7.0083192  36.7456297
  20.5311928   6.9077322  37.4158672  22.0298925   6.8522406  37.2092294
  12.9550150  13.2455129  29.3668812  13.5403587  12.4998817  29.4996716
  12.7574988  13.5559086  30.2505476  19.9494074  18.3150120  30.9813913
  20.5012382  18.4781741  31.7462998  20.2900267  18.9054558  30.3093937
  24.8004948  13.1411377  36.8362567  25.3444852  13.7541336  36.3417522
  24.2191793  13.6990956  37.3529580  23.0862461  16.2632095  27.9677595
  22.9613601  15.4621835  27.4588540  23.7441552  16.7578289  27.4791565
  25.1497369  14.0641115  29.5957145  24.2027705  13.9446467  29.5235472
  25.4980143  13.1763614  29.6783406  22.1543803  13.8593832  25.7961497
  22.0068765  12.9310539  25.9769067  22.9797296  13.8813922  25.3118572
  25.7577925  14.6822390  26.8826370  26.6824472  14.4765252  26.7450821
  25.5893228  14.4338792  27.7915711  20.0959885  15.8808601  32.9962567
  20.4047012  15.6357748  33.8685267  20.8935367  16.0855240  32.5081437
  20.1180497  18.0346511  25.2267944  19.6785488  17.5422890  25.9200800
  20.8688614  17.4919479  24.9860019  17.5654369  13.5784520  27.2990245
  16.9434379  12.9155225  26.9992473  18.2359236  13.6045652  26.6163893
  28.1233743  12.6007431  36.1723888  27.3329286  12.5831570  35.6328388
  27.8867097  13.1395725  36.9272925  28.2431618   9.4499898  33.4856617
  28.2929623   9.2849905  34.4272140  28.1345541   8.5827157  33.0954498
  25.5335380   5.4330826  34.8015924  26.4345243   5.2937291  34.5099921
  25.6083354   5.5985281  35.7414101  19.8678185   2.8097681  33.6469110
  18.9981495   3.1031247  33.3751698  20.1037666   3.3938126  34.3676374
  29.7449814  11.8696839  33.7298638  29.4534623  12.2326820  34.5662099
  29.1321946  11.1563848  33.5511970  30.9445497   9.4349719  26.2501209
  31.7792388   9.8739523  26.4138769  31.0804626   8.9588372  25.4309454
  27.9937003   6.9929454  32.1978696  28.4691124   7.1857100  31.3897548
  27.0702568   7.0488640  31.9522080  26.6938672   3.8695214  30.4307002
  27.6456095   3.9693312  30.4519226  26.5242122   3.0773483  30.9405086
  29.1726749   7.0901334  29.5449302  29.1403070   6.1517334  29.7308985
  29.7827373   7.1685370  28.8115127  29.3221238   3.8812377  29.5907585
  28.8060287   3.0970834  29.4037514  30.2061186   3.5531094  29.7554104
  34.9903299   8.1517341  28.6855338  35.7206688   7.8902629  29.2463042
  34.3810245   7.4146063  28.7257406  33.0718596   6.2925203  29.2829790
  32.3451760   6.1581168  28.6746281  32.6565883   6.6002032  30.0886508
  20.8948773  10.0115133  37.0477163  21.8151782  10.1893732  37.2417209
  20.8598356   9.0671178  36.8956862  18.7638711   3.4949373  39.0802693
  18.6635438   4.4443730  39.0114784  18.5460253   3.1667612  38.2078763
  18.6269981   6.9246512  37.8967754  18.1437062   7.7246872  38.1031643
  18.7130920   6.9354457  36.9435198  14.5543318  10.8151047  29.9336188
  15.5086572  10.7834989  29.8666120  14.3555842  10.3541671  30.7486414
  15.1442700   9.3852163  32.5006986  15.9635589   9.8796242  32.5241823
  15.4179508   8.4684131  32.4724553  32.9967464   5.8203256  25.4106642
  32.4367022   5.8896446  26.1838204  32.3910967   5.6444241  24.6906139
  16.0662673  17.2539983  27.1624829  15.9495057  18.1985416  27.0603519
  15.2455119  16.9513545  27.5510628  22.9231007  10.7871144  38.6991323
  23.7922166  10.9611797  38.3377958  22.4437758  11.6065561  38.5767053
  17.0917187  17.9068245  30.3780757  17.9944434  17.9391856  30.6947252
  16.8654557  16.9768696  30.3927093  18.8470789  16.6599232  27.0390836
  17.8966420  16.6601093  26.9255208  19.1503275  15.9131966  26.5226870
  34.5823483  22.4959770  28.1036598  35.2201892  22.3766518  27.3999938
  34.4644325  23.4440614  28.1624550  31.3913189  22.4487198  28.0398123
  31.0531700  22.3328263  27.1518658  32.2602957  22.0478363  28.0199129
  27.2500004  24.3022675  24.0295014  26.6864870  24.2112612  23.2611302
  27.1352400  23.4822579  24.5097506  31.8732972  23.6022050  33.9984328
  31.8621613  23.2074848  33.1264832  32.0353611  22.8688123  34.5918100
  24.7964436  25.7973866  26.8679234  25.5885728  25.4564691  26.4525534
  25.0361087  25.9068841  27.7881388  32.8299563  27.9693642  19.3409479
  32.1787543  28.5547723  18.9543492  33.6243926  28.4999837  19.4004516
  26.7555190  25.0582780  19.7396613  27.5286066  24.5111767  19.6009489
  27.1080589  25.9227029  19.9511074  28.5940233  26.3859162  32.9463512
  28.3030099  27.2904793  32.8310179  29.2297217  26.4275689  33.6607582
  29.5196440  23.7636010  29.5364872  30.1160012  23.5392033  28.8221835
  29.5771411  23.0220756  30.1390320  34.1364751  20.2211224  25.1789806
  34.9227840  19.8030647  24.8280223  34.4003455  21.1257316  25.3471455
  34.3074828  25.6584074  19.8778463  33.6720661  25.7318701  20.5899368
  33.9772235  26.2477673  19.1997542  39.5373178  20.1586457  26.0822785
  40.2698350  19.5885674  26.3160614  38.7812534  19.7708058  26.5229290
  28.8117757  23.1203552  19.5739438  28.6954015  22.4448455  20.2420522
  28.9220017  22.6335926  18.7571591  31.1549298  22.5813699  23.2786127
  30.7907505  22.0544320  23.9899049  32.0116414  22.1912168  23.1052613
  37.0598598  13.8708031  30.5417393  36.7281923  14.7403442  30.3178608
  36.4644212  13.5544315  31.2211424  33.5530118  26.0720577  29.9413306
  33.2530841  26.9745616  29.8329113  33.2081178  25.8052761  30.7934459
  27.0042599  22.5234374  25.9750010  26.0793096  22.3910588  26.1827702
  27.2527013  23.3028593  26.4719953  36.9527262  18.5903118  27.6210743
  36.0444139  18.5218526  27.3269504  36.9014858  19.0675062  28.4492569
  30.7744006  20.0661256  19.2594142  30.6543631  20.5118307  20.0979623
  30.0796594  20.4146574  18.7007681  24.3651411  22.1667648  26.8093800
  24.4943792  22.4202127  27.7233211  23.6848862  22.7595356  26.4898455
  28.5350898  32.8364898  22.9084274  28.4574928  33.7872723  22.9872754
  27.9312541  32.4910770  23.5659200  31.0268128  20.0092763  35.5645641
  30.2501462  20.5686683  35.5548505  31.6658691  20.4949546  36.0860511
  38.8188908  16.7919556  29.3988617  38.1763288  17.0852089  28.7528412
  38.3143837  16.6772476  30.2041814  36.4729072  20.5382729  20.0874477
  37.3846928  20.7710116  19.9122174  35.9638719  21.1219773  19.5249555
  29.2814500  22.8178216  35.1263608  30.0229184  23.3563260  34.8498431
  28.5751485  23.4444505  35.2835159  34.7569840  24.9607357  33.7235769
  35.1653196  24.5189767  32.9790401  34.0347101  24.3859984  33.9769962
  31.1100910  19.8979964  31.0969326  31.9562105  20.3219377  31.2403975
  31.0499547  19.2413588  31.7907889  35.0798654  25.5208548  27.4788058
  34.4507517  25.6854262  26.7764126  34.6924316  25.9350157  28.2499022
  38.9587886  26.4562985  24.8332422  38.2738924  26.8361887  24.2829455
  39.0431735  27.0658312  25.5664370  34.2600355  17.5584332  32.7550500
  34.0161287  18.3126393  32.2184775  34.5360285  17.9369680  33.5897747
  36.2138818  24.1022944  31.4327765  36.4255713  24.7454704  30.7562146
  36.1668566  23.2685261  30.9649695  33.8165047  16.7140765  28.3364337
  32.9549526  17.0122019  28.6281075  33.8427481  16.9311164  27.4045370
  30.6326616  25.2582956  24.7438143  31.0964962  25.5370659  23.9542766
  30.3683414  24.3566400  24.5611234  27.5250697  24.8054437  27.6817906
  28.0952054  25.2341706  27.0435391  28.1158809  24.5237022  28.3802092
  29.5695502  21.3806108  21.5527708  30.2719545  21.8327152  22.0201635
  29.2376131  20.7389927  22.1807601  28.0175864  19.9717865  35.9278918
  27.3874524  20.6534145  36.1614314  27.9111952  19.8600946  34.9832056
  23.3120836  19.6389661  26.8544842  22.5219890  19.8947189  26.3784952
  23.8032083  20.4537999  26.9596882  37.3284646  26.9794900  29.6050123
  38.1502089  26.5775087  29.3232804  37.3247049  26.8763134  30.5566238
  25.2635581  20.0034240  23.8128319  24.4666745  20.1152934  24.3311814
  25.0361174  20.3420892  22.9469209  31.0941249  26.5278943  31.7610833
  31.1585682  26.9899350  32.5969005  30.3852173  25.8976308  31.8893143
  21.5958539  19.8920151  29.2859833  21.8466577  20.7767161  29.5517409
  22.1318087  19.7124753  28.5134924  45.4190639  23.3233648  25.9535094
  44.6654347  22.7541046  25.7979099  45.5538180  23.2896313  26.9005729
  30.8089267  28.1947051  21.6289813  30.6734942  29.0398586  22.0574661
  31.3499079  28.3966328  20.8655747  27.2956606  14.2738630  38.2904169
  26.9023552  13.7204829  38.9651813  28.1122747  14.5849209  38.6810686
  24.2618664  25.7122489  22.2017739  24.7743185  26.5065739  22.3523303
  24.9141377  25.0148779  22.1351340  26.0713549  28.8288245  24.2840492
  26.2480177  29.7506210  24.0961476  26.8670382  28.5146664  24.7134872
  30.2124567  15.6896510  35.8824425  30.9534281  16.2903663  35.8028888
  30.4442490  14.9474147  35.3242468  25.3565905  20.8752877  34.1602655
  25.2419421  19.9738134  34.4609754  24.5010423  21.1216574  33.8087471
  32.4357743  28.8170617  35.7590156  31.9921597  28.0306996  35.4411060
  33.0974957  29.0049768  35.0934046  27.1944864  30.3466419  30.2850834
  27.7452289  30.2183482  29.5127828  26.3556340  30.6461308  29.9345727
  34.5338981  29.0973417  33.7871557  34.5157457  29.9182298  33.2951826
  35.4558901  28.9727492  34.0121698  30.9912035  26.6117547  34.6295065
  31.5240372  25.8505835  34.3994373  30.4626116  26.3191198  35.3719220
  34.1581730  11.7177613  30.1588707  33.8146000  12.6079254  30.0827818
  34.5260693  11.5279270  29.2958292  22.2267581  24.0411143  22.9777309
  23.0642803  24.4508151  22.7611017  22.4045849  23.1010585  22.9477503
  34.1232013  21.7086224  18.6661142  33.6078636  22.4790828  18.9049529
  33.8509321  21.0351360  19.2894203  31.7079124  16.5535924  23.7246380
  30.8520720  16.1642775  23.5452019  32.1206076  16.6327885  22.8646166
  33.2378271  14.0882268  28.1237940  32.7343066  14.0512403  27.3105745
  33.5308878  14.9975010  28.1834597  29.4821157  14.1720997  27.1304122
  30.3474153  13.9763806  26.7710011  29.5498665  13.9431349  28.0573479
  39.0966287  24.4618578  20.6014316  38.3195730  24.1229738  20.1569478
  39.7757768  24.4671201  19.9269281  33.9118316  19.5813316  20.4920923
  33.6068452  19.8959465  21.3431066  34.8648758  19.6594736  20.5348256
  32.3564748  25.7403539  22.1413877  31.8286110  25.0056299  21.8287115
  31.8552251  26.5178215  21.8953846  37.3357594  23.9352560  27.2580923
  36.6781269  24.6251821  27.3461052  38.1397993  24.3248991  27.6014910
  27.0883476  16.4023205  24.5020489  27.6627228  16.1798387  23.7693682
  27.6754458  16.4711900  25.2549090  36.1463053  22.2896932  25.3084865
  36.6594935  22.9226924  25.8106575  36.7964277  21.6898128  24.9428225
  29.3906143  13.2764454  23.2295558  28.7370556  12.9613471  22.6052173
  29.3486618  12.6540195  23.9555381  33.4085427  32.2681256  18.0645536
  32.7347126  32.5712953  18.6730494  33.7951249  33.0710337  17.7150993
  32.6243884  19.7646388  27.5543206  31.7066445  19.9861335  27.3964894
  33.0404027  19.8392698  26.6954913  33.4078931  21.1637803  22.6845886
  34.1550750  21.6759201  22.3753008  33.6770521  20.8421856  23.5450280
  31.6805582  23.6596344  19.6672840  30.7716801  23.3755377  19.7645310
  31.7100665  24.0795423  18.8076147  36.9124849  27.2702934  23.4364008
  36.4587176  26.4293844  23.4929198  36.2818816  27.9064332  23.7738788
  35.8557769  18.1994920  24.6664675  35.1180525  17.6872306  24.9974918
  36.1084542  17.7595301  23.8547952  35.3557788  29.1079430  24.3713826
  35.6480763  29.6684487  23.6526192  35.8656409  29.4007991  25.1266985
  35.9569396  10.9771172  25.2606445  36.2628273  10.1168535  24.9732360
  36.6822001  11.5688792  25.0605439  22.2493752  21.3801858  23.6488043
  22.0518152  20.7871219  22.9239109  21.6940416  21.0754068  24.3663981
  30.2290476  21.2724965  25.7682636  30.2839085  20.3198801  25.6925112
  29.4181678  21.4284404  26.2523934  31.3781669  25.2005088  17.0060919
  30.9401099  24.4840947  16.5466556  32.1192110  25.4281203  16.4446010
  28.1682836  19.8902024  23.5273015  27.3550701  20.1896195  23.9338207
  28.6641830  19.4957713  24.2447497  30.3191414  29.8859781  25.4607279
  30.2767592  30.1120628  24.5315811  31.2354112  29.6523156  25.6093080
  33.7657047  20.3543849  32.3587908  34.1206435  20.5815322  33.2182374
  34.4129179  20.6862226  31.7365164  39.4954784  23.4762285  23.0637237
  39.3572683  23.6663881  22.1358427  39.1391003  24.2381668  23.5205289
  27.6596910  17.4620380  29.1434249  28.2996290  17.3209139  28.4457213
  26.8274441  17.1754893  28.7672851  39.5224164  25.5438812  28.0748509
  39.9560671  25.4514101  28.9231563  40.2355745  25.5196312  27.4368525
  28.4357214  26.7622810  25.2569242  29.2297813  26.2673131  25.0551817
  27.7248907  26.2340674  24.8936948  33.2552059  29.1440906  29.6081610
  33.3089081  29.7131842  30.3759325  32.3866840  29.3142791  29.2435647
  24.7439978  20.9065892  21.3328995  23.8137566  20.8450348  21.5498957
  24.8397450  20.3841845  20.5365636  24.6625527  17.4320705  23.9207236
  24.9232344  18.3466038  23.8116397  25.4842699  16.9645148  24.0703849
  26.1350452  18.8458462  31.0906061  26.8073506  18.6375824  30.4418710
  25.3080239  18.6480548  30.6511293  40.3839713  25.5862513  30.6081394
  40.5775603  26.4908323  30.8540669  40.2840332  25.1269932  31.4419979
  32.0376024  15.4720403  33.1071722  31.3903939  16.1710353  33.0136198
  32.8077040  15.9056547  33.4747970  35.4454822  25.7369255  36.1822275
  35.2940329  25.5079807  35.2652359  35.4359502  26.6939857  36.1953620
  32.2140159  23.3101168  31.1668541  33.1432219  23.4612328  30.9937509
  31.7931189  23.3985189  30.3117188  31.0128490  27.3351832  28.9367079
  30.8739576  26.9670617  29.8093017  30.2243087  27.8499472  28.7651037
  31.6076642  32.4360929  20.2792616  31.7828398  31.9648972  21.0938238
  30.9209430  33.0626695  20.5073876  32.5633705  26.7133435  26.3255917
  32.2283538  26.6734205  27.2213567  32.0637651  26.0478151  25.8526327
  26.5377949  22.1201065  31.8508498  26.3997747  21.3881304  32.4520037
  27.4482873  22.0309965  31.5692686  35.4992897  24.0589469  16.5992976
  34.8822068  23.3336298  16.5026029  35.0309386  24.8198830  16.2560051
  29.1660250  21.8321024  31.3392178  29.8759869  21.1914217  31.2978796
  29.1229558  22.0833919  32.2618358  37.1547029  28.7688378  34.2598757
  37.0959575  28.0847598  33.5929340  37.5566547  29.5107368  33.8079383
  27.8789184  18.8186242  33.1587817  27.3426541  18.3676981  33.8109413
  27.2905892  18.9532151  32.4158281  26.1737728  35.5850292  27.0532476
  26.4134326  36.2168816  27.7311494  25.3306924  35.2338332  27.3397835
  37.1564436  26.7327962  32.4912737  36.2691215  26.3953884  32.6139135
  37.7262987  26.0010993  32.7281502  18.8093583  23.0652053  25.8155788
  19.4964623  22.7513784  25.2276803  18.6541712  23.9693418  25.5423039
  23.6128305  17.9542250  30.2440812  23.5286494  17.3467920  29.5091222
  22.7911012  18.4451268  30.2450308  30.6865589  31.3929414  29.4573980
  30.6135761  32.1984386  29.9693284  30.2442983  31.5921380  28.6322001
  30.4755369  30.6301184  22.9676801  29.6922891  31.1722864  23.0615026
  31.1748114  31.1475164  23.3671042  33.7852019  16.4395814  25.6111007
  34.2820719  15.6865776  25.2912077  33.0139001  16.4760130  25.0454216
  41.6381777  22.1436179  27.2529298  41.6271653  23.0260895  26.8823231
  40.7699156  21.7907730  27.0583835  33.1464273  31.2916248  31.6132138
  33.8592245  31.9263713  31.5408040  32.6554302  31.3880114  30.7972140
  34.8681800  25.1967501  23.1849430  33.9338079  25.3168963  23.0154134
  35.0458468  24.2939968  22.9209440  30.3686988  18.5813197  25.3382691
  29.9984775  18.0284237  26.0263597  30.8646080  17.9771330  24.7857691
  38.2554351  21.0384820  23.7199464  38.7214803  21.8712812  23.6459767
  38.7061852  20.5729802  24.4244723  28.1976186  29.0410692  32.4337709
  28.8985646  29.6747175  32.5867103  27.7271301  29.3825423  31.6733348
  36.3230582  27.3828641  20.7185616  36.5990426  27.2685236  21.6279490
  35.4535081  26.9846126  20.6797789  36.2271014  13.4065407  27.7590366
  35.3134094  13.6369634  27.9272572  36.6564115  13.4903851  28.6104398
  35.9977472  21.5955299  30.2590260  35.3448923  21.8431206  29.6042712
  36.3757852  20.7819437  29.9252737  32.9584646  31.6314992  24.3618430
  33.1407041  30.8136648  24.8246182  33.7817632  31.8482684  23.9243320
  33.2926812  30.5583177  21.6233478  33.8214578  30.0475632  21.0103640
  33.5555031  30.2425708  22.4879011  32.0465045  22.3375110  36.7456297
  31.3705682  22.2369239  37.4158672  32.8692679  22.1814324  37.2092294
  23.7943905  28.5747047  29.3668812  24.3797341  27.8290735  29.4996716
  23.5968743  28.8851003  30.2505476  26.6482560  31.6098294  24.3831254
  25.9792935  32.0944422  23.8995294  26.5095429  31.8567514  25.2974633
  18.3861559  21.1452647  28.0873255  18.4245659  20.6116238  28.8810373
  17.8801852  20.6187852  27.4684232  30.7887828  33.6442038  30.9813913
  31.3406136  33.8073659  31.7462998  31.1294022  34.2346475  30.3093937
  25.7652322  15.9917187  31.5835797  25.8293648  16.8532018  31.1713195
  25.7019442  15.3791189  30.8508156  25.2404594  18.0640320  35.2308832
  25.8676633  17.6817397  35.8446356  24.3832513  17.8454522  35.5964524
  35.6398703  28.4703295  36.8362567  36.1838607  29.0833253  36.3417522
  35.0585547  29.0282873  37.3529580  33.9256216  31.5924013  27.9677595
  33.8007355  30.7913753  27.4588540  34.5835307  32.0870206  27.4791565
  25.5464384  17.9472746  27.1454735  24.8250970  18.5608713  27.0062208
  26.3357640  18.4830510  27.0671381  35.9891124  29.3933033  29.5957145
  35.0421460  29.2738384  29.5235472  36.3373897  28.5055531  29.6783406
  28.3490697  15.2827172  33.4195387  28.8725099  15.5289469  34.1821696
  28.1303031  16.1147207  32.9998524  32.9937557  29.1885749  25.7961497
  32.8462520  28.2602457  25.9769067  33.8191051  29.2105840  25.3118572
  26.8599802  17.8403816  21.6541989  27.1995874  18.3689738  20.9320598
  27.3071922  18.1784223  22.4300556  36.5971679  30.0114308  26.8826370
  37.5218227  29.8057169  26.7450821  36.4286983  29.7630709  27.7915711
  29.5543242  16.2240867  31.1045057  29.2140063  15.4248680  31.5065737
  28.8482249  16.5242578  30.5321890  30.2059714  13.3090180  29.5572380
  31.0285784  12.8350658  29.4351271  30.4497778  14.0880663  30.0571067
  32.9899072  17.0423587  20.7893614  33.2062686  17.9248225  20.4882442
  32.5093139  16.6509800  20.0599256  27.7298293  20.0009300  27.3664359
  27.5842874  20.3149603  28.2588640  27.2523497  20.6194201  26.8135258
  29.5894676  16.9911848  27.4145248  29.5756245  16.0952942  27.0777546
  30.3067104  16.9982512  28.0483535  31.4420807  17.4249188  29.4598376
  31.1838584  18.3466259  29.4582706  30.9105847  17.0279623  30.1498840
  36.3866995  30.5299976  22.2388461  36.5603873  29.9646398  21.4862314
  36.8795887  31.3300870  22.0567951  22.2043955  22.5414645  30.3052020
  21.6597423  23.3174453  30.4372294  23.0823305  22.8885449  30.1471142
  28.9931572  15.8726229  22.6832819  29.1147483  14.9442875  22.8823706
  28.7033614  15.8864914  21.7711134  31.8622762  13.5581139  25.8199538
  31.8844459  13.6220472  24.8651518  32.2790821  12.7185648  26.0140045
  42.2406387  23.2936399  23.8578761  42.6837533  22.5443724  23.4597884
  41.3632897  23.2846535  23.4752493  37.3742168  29.8466740  19.3385360
  38.0693072  30.4673433  19.5572674  37.7165318  28.9962091  19.6137737
  22.9909977  21.6684541  33.1982177  22.2491713  21.8167176  33.7846807
  22.6702721  21.9292807  32.3348926  39.2733591  27.2966446  20.8672690
  39.7984915  27.6353718  20.1422010  39.1855944  26.3613461  20.6835825
  30.9353640  31.2100519  32.9962567  31.2440766  30.9649666  33.8685267
  31.7329122  31.4147158  32.5081437  30.9574252  33.3638429  25.2267944
  30.5179242  32.8714807  25.9200800  31.7082369  32.8211396  24.9860019
  23.4366591  29.5549970  25.2292572  24.2624611  29.2553742  24.8491215
  23.0860643  28.7857592  25.6782360  28.4048124  28.9076438  27.2990245
  27.7828133  28.2447143  26.9992473  29.0752991  28.9337570  26.6163893
  21.6375196  27.4736296  26.1881505  20.8007104  27.0458470  26.0065506
  21.6098841  27.6668739  27.1252296  28.4772651  17.3858226  36.8922751
  28.5260807  18.2620349  36.5100521  29.0195166  16.8435619  36.3194394
  39.0825372  24.7791816  33.4856617  39.1323377  24.6141823  34.4272140
  38.9739295  23.9119075  33.0954498  27.9661631  27.4580361  20.7748706
  28.1149751  28.1415826  20.1215378  28.7728074  27.4385451  21.2898161
  36.3729134  20.7622744  34.8015924  37.2738997  20.6229208  34.5099921
  36.4477109  20.9277198  35.7414101  30.7071940  18.1389598  33.6469110
  29.8375249  18.4323164  33.3751698  30.9431420  18.7230043  34.3676374
  41.7839251  24.7641637  26.2501209  42.6186143  25.2031441  26.4138769
  41.9198380  24.2880290  25.4309454  38.8330757  22.3221372  32.1978696
  39.3084879  22.5149018  31.3897548  37.9096323  22.3780557  31.9522080
  25.7214264  23.4845539  21.7809775  25.4760306  22.5807869  21.9789985
  25.8910178  23.4862689  20.8389253  33.4110974  14.3569215  31.1634530
  33.9292917  15.0930242  30.8381019  33.0566106  14.6633209  31.9981289
  33.6623568  10.7769498  26.6835427  33.9425322  10.1092687  27.3095853
  34.4474175  10.9698593  26.1710091  31.4657036  29.9528492  18.2460453
  30.8931003  30.5718679  17.7930925  32.0389830  30.5027853  18.7800375
  37.5332426  19.1987132  30.4307002  38.4849849  19.2985229  30.4519226
  37.3635877  18.4065400  30.9405086  35.5546806  16.2842715  30.6166403
  34.9596738  16.5647728  29.9212892  35.2696502  16.7736616  31.3883144
  34.6854296  30.2365642  19.3769035  35.6184969  30.1711203  19.5801911
  34.5977509  31.0721909  18.9183568  37.3142313  29.5531512  16.3372983
  37.2355944  29.2191376  17.2308741  38.1351980  30.0453280  16.3364455
  40.0120504  22.4193251  29.5449302  39.9796824  21.4809252  29.7308985
  40.6221128  22.4977288  28.8115127  40.1614992  19.2104295  29.5907585
  39.6454041  18.4262752  29.4037514  41.0454941  18.8823011  29.7554104
  37.8225719  12.9545310  25.5503397  37.6250540  12.6460399  26.4346729
  38.4325425  13.6806949  25.6801327  45.8297054  23.4809258  28.6855338
  46.5600442  23.2194546  29.2463042  45.2203999  22.7437980  28.7257406
  43.9112351  21.6217121  29.2829790  43.1845514  21.4873086  28.6746281
  43.4959638  21.9293949  30.0886508  31.7342527  25.3407051  37.0477163
  32.6545537  25.5185650  37.2417209  31.6992110  24.3963096  36.8956862
  20.9524692  20.5345644  25.9730437  20.6327477  19.6810952  25.6804811
  20.4058121  20.7494222  26.7288405  24.7304600  23.2508085  29.6899944
  24.9490610  24.1825193  29.7087978  25.1430374  22.8916060  30.4754748
  31.6508818  13.7576171  21.6775632  30.8409546  13.4123255  22.0530878
  32.3393235  13.4483714  22.2663244  33.5799366  12.8354217  23.2999929
  34.1330405  13.2549671  23.9589952  33.8169452  11.9089965  23.3422885
  29.6032465  18.8241291  39.0802693  29.5029192  19.7735648  39.0114784
  29.3854007  18.4959530  38.2078763  20.8212952  24.1548556  27.9423559
  20.1276424  23.7402508  27.4293513  21.5685943  24.1969092  27.3456978
  36.9578173  14.9454742  22.8078593  36.3776842  15.6039547  22.4256645
  36.6914106  14.1232087  22.3966011  35.4081739  14.3459800  25.0099913
  35.9081518  14.4576335  24.2014232  36.0517347  14.0420853  25.6500722
  29.4663735  22.2538430  37.8967754  28.9830817  23.0538790  38.1031643
  29.5524674  22.2646375  36.9435198  22.7349695  24.0866809  25.8189574
  22.7120383  24.1854497  24.8671457  23.0450331  24.9331960  26.1406740
  25.3937073  26.1442965  29.9336188  26.3480326  26.1126907  29.8666120
  25.1949596  25.6833588  30.7486414  25.9836455  24.7144081  32.5006986
  26.8029344  25.2088159  32.5241823  26.2573263  23.7976049  32.4724553
  35.7403051  17.1054833  21.8634941  34.8528906  17.3904483  21.6455136
  36.1557040  16.9448596  21.0162218  39.0917587  17.1301354  25.5789281
  39.8677977  17.6197806  25.8513897  38.3665721  17.5559408  26.0361150
  41.5290146  17.8428973  26.6363221  42.1234637  17.6024709  25.9256529
  41.6016730  17.1236104  27.2636758  23.7487302  31.6862584  26.9506386
  23.6141769  30.9262985  26.3844384  23.3319364  32.4103484  26.4835175
  34.8846265  26.8699508  15.9582961  35.5882115  27.0749510  16.5740617
  34.1608913  27.4376269  16.2232045  35.7144075  22.6209369  22.0785232
  35.6579276  23.0777920  21.2392864  36.2672417  21.8600053  21.9008074
  39.5248881  18.4099101  22.9035351  39.2685815  18.0095736  23.7343559
  38.9001749  19.1242895  22.7785490  43.8361219  21.1495174  25.4106642
  43.2760777  21.2188363  26.1838204  43.2304722  20.9736159  24.6906139
  26.9056427  32.5831901  27.1624829  26.7888812  33.5277334  27.0603519
  26.0848874  32.2805463  27.5510628  36.7932962  27.3082037  18.0081421
  37.6278566  26.8763235  17.8258896  36.6317305  27.1364050  18.9358316
  36.4478854  23.8114150  19.3737761  36.3927658  23.6458421  18.4326205
  35.8224909  24.5190183  19.5299950  21.2371369  19.0482214  33.1999183
  21.8830233  18.5381168  33.6886408  21.0288520  19.7850896  33.7742608
  33.7624761  26.1163062  38.6991323  34.6315921  26.2903714  38.3377958
  33.2831513  26.9357479  38.5767053  27.9310942  33.2360163  30.3780757
  28.8338188  33.2683773  30.6947252  27.7048312  32.3060614  30.3927093
  29.6864544  31.9891149  27.0390836  28.7360175  31.9893011  26.9255208
  29.9897030  31.2423884  26.5226870  33.5727099   9.9065036  23.2069016
  32.8059495   9.3523522  23.3525698  33.9837804   9.9786904  24.0683168
  25.5768860  16.1949831  37.2974197  26.4400322  15.8386636  37.5077522
  25.0034271  15.8563726  37.9849601  38.0893759  39.6314592  24.0295014
  37.5258624  39.5404529  23.2611302  37.9746154  38.8114497  24.5097506
  35.6358191  41.1265784  26.8679234  36.4279483  40.7856609  26.4525534
  35.8754841  41.2360759  27.7881388  37.5948945  40.3874697  19.7396613
  38.3679821  39.8403684  19.6009489  37.9474344  41.2518947  19.9511074
  39.9315223  36.5467363  17.3715063  40.1840743  36.0248885  16.6098526
  38.9939782  36.3833509  17.4741747  39.6511511  38.4495469  19.5739438
  39.5347770  37.7740373  20.2420522  39.7613771  37.9627843  18.7571591
  41.9943052  37.9105616  23.2786127  41.6301260  37.3836237  23.9899049
  42.8510168  37.5204085  23.1052613  47.8992353  29.1999949  30.5417393
  47.5675678  30.0695360  30.3178608  47.3037966  28.8836233  31.2211424
  41.6348539  32.9395516  18.2747476  41.8022942  33.8075752  18.6417947
  41.4445708  33.1022798  17.3508765  37.8436354  37.8526292  25.9750010
  36.9186850  37.7202506  26.1827702  38.0920767  38.6320511  26.4719953
  41.6137760  35.3953174  19.2594142  41.4937385  35.8410224  20.0979623
  40.9190349  35.7438491  18.7007681  35.2045165  37.4959565  26.8093800
  35.3337546  37.7494044  27.7233211  34.5242616  38.0887273  26.4898455
  49.6582663  32.1211474  29.3988617  49.0157043  32.4144007  28.7528412
  49.1537591  32.0064394  30.2041814  47.3122826  35.8674647  20.0874477
  48.2240682  36.1002034  19.9122174  46.8032473  36.4511691  19.5249555
  44.6558801  32.0432683  28.3364337  43.7943280  32.3413936  28.6281075
  44.6821236  32.2603082  27.4045370  40.4089257  36.7098026  21.5527708
  41.1113300  37.1619069  22.0201635  40.0769885  36.0681845  22.1807601
  34.1514591  34.9681578  26.8544842  33.3613645  35.2239107  26.3784952
  34.6425838  35.7829916  26.9596882  36.1029336  35.3326158  23.8128319
  35.3060499  35.4444852  24.3311814  35.8754928  35.6712810  22.9469209
  32.4352294  35.2212069  29.2859833  32.6860332  36.1059079  29.5517409
  32.9711842  35.0416670  28.5134924  35.1012419  41.0414406  22.2017739
  35.6136939  41.8357657  22.3523303  35.7535131  40.3440697  22.1351340
  36.9107303  44.1580163  24.2840492  37.0873932  45.0798127  24.0961476
  37.7064137  43.8438582  24.7134872  44.9975485  27.0469530  30.1588707
  44.6539754  27.9371172  30.0827818  45.3654447  26.8571188  29.2958292
  33.0661335  39.3703061  22.9777309  33.9036557  39.7800069  22.7611017
  33.2439603  38.4302503  22.9477503  44.9625768  37.0378141  18.6661142
  44.4472391  37.8082746  18.9049529  44.6903076  36.3643277  19.2894203
  42.5472879  31.8827842  23.7246380  41.6914475  31.4934692  23.5452019
  42.9599830  31.9619803  22.8646166  44.0772025  29.4174185  28.1237940
  43.5736821  29.3804320  27.3105745  44.3702632  30.3266928  28.1834597
  40.3214911  29.5012915  27.1304122  41.1867908  29.3055724  26.7710011
  40.3892420  29.2723267  28.0573479  44.7512071  34.9105233  20.4920923
  44.4462206  35.2251383  21.3431066  45.7042513  34.9886653  20.5348256
  37.9277230  31.7315123  24.5020489  38.5020982  31.5090304  23.7693682
  38.5148213  31.8003817  25.2549090  38.2546817  33.7619584  18.5216374
  37.4184130  34.0994271  18.8425649  38.1151587  33.6268564  17.5843511
  40.2299898  28.6056372  23.2295558  39.5764310  28.2905389  22.6052173
  40.1880372  27.9832112  23.9555381  41.3411103  38.8875667  15.1448850
  40.4338164  38.6564920  15.3439999  41.8382135  38.0913286  15.3322832
  44.2472686  36.4929721  22.6845886  44.9944505  37.0051118  22.3753008
  44.5164276  36.1713774  23.5450280  46.6951523  33.5286837  24.6664675
  45.9574280  33.0164224  24.9974918  46.9478297  33.0887219  23.8547952
  46.7963150  26.3063089  25.2606445  47.1022027  25.4460453  24.9732360
  47.5215755  26.8980710  25.0605439  33.0887507  36.7093776  23.6488043
  32.8911906  36.1163137  22.9239109  32.5334171  36.4045986  24.3663981
  41.0684230  36.6016882  25.7682636  41.1232840  35.6490719  25.6925112
  40.2575432  36.7576322  26.2523934  39.0076590  35.2193942  23.5273015
  38.1944456  35.5188113  23.9338207  39.5035584  34.8249631  24.2447497
  38.4990665  32.7912298  29.1434249  39.1390044  32.6501057  28.4457213
  37.6668195  32.5046811  28.7672851  39.2750969  42.0914728  25.2569242
  40.0691567  41.5965048  25.0551817  38.5642661  41.5632591  24.8936948
  35.5833732  36.2357810  21.3328995  34.6531320  36.1742265  21.5498957
  35.6791204  35.7133763  20.5365636  35.5019281  32.7612623  23.9207236
  35.7626099  33.6757956  23.8116397  36.3236454  32.2937065  24.0703849
  46.3386652  39.3881387  16.5992976  45.7215822  38.6628215  16.5026029
  45.8703140  40.1490747  16.2560051  38.1285197  33.6066811  15.7214281
  37.2514664  33.4855612  15.3576527  38.6042951  32.8152890  15.4693169
  29.6487338  38.3943971  25.8155788  30.3358377  38.0805701  25.2276803
  29.4935466  39.2985336  25.5423039  34.4522060  33.2834168  30.2440812
  34.3680248  32.6759837  29.5091222  33.6304766  33.7743186  30.2450308
  44.6245774  31.7687731  25.6111007  45.1214473  31.0157694  25.2912077
  43.8532755  31.8052048  25.0454216  41.2080742  33.9105114  25.3382691
  40.8378530  33.3576155  26.0263597  41.7039835  33.3063248  24.7857691
  49.0948106  36.3676738  23.7199464  49.5608558  37.2004729  23.6459767
  49.5455606  35.9021719  24.4244723  47.0664768  28.7357325  27.7590366
  46.1527848  28.9661552  27.9272572  47.4957870  28.8195769  28.6104398
  34.6337659  43.9038964  29.3668812  35.2191096  43.1582652  29.4996716
  34.4362497  44.2142921  30.2505476  29.2255314  36.4744565  28.0873255
  29.2639413  35.9408155  28.8810373  28.7195607  35.9479770  27.4684232
  36.6046076  31.3209105  31.5835797  36.6687403  32.1823936  31.1713195
  36.5413196  30.7083107  30.8508156  32.8563891  35.2008667  21.1627186
  33.1517332  34.2919345  21.1094240  31.9551927  35.1796406  20.8408189
  36.3858138  33.2764663  27.1454735  35.6644724  33.8900631  27.0062208
  37.1751394  33.8122428  27.0671381  34.5851733  32.8822764  21.2866512
  34.2564439  32.0020143  21.1041617  34.9391104  32.8270433  22.1742901
  37.6993556  33.1695734  21.6541989  38.0389629  33.6981655  20.9320598
  38.1465677  33.5076140  22.4300556  41.0453469  28.6382097  29.5572380
  41.8679538  28.1642575  29.4351271  41.2891532  29.4172581  30.0571067
  39.6861703  31.6670356  19.8535282  40.4070066  32.0451609  19.3498999
  39.0627007  32.3859233  19.9570260  43.8292826  32.3715505  20.7893614
  44.0456440  33.2540143  20.4882442  43.3486893  31.9801718  20.0599256
  40.4288430  32.3203766  27.4145248  40.4149999  31.4244859  27.0777546
  41.1460858  32.3274430  28.0483535  42.2814561  32.7541106  29.4598376
  42.0232339  33.6758177  29.4582706  41.7499601  32.3571541  30.1498840
  33.0437710  37.8706562  30.3052020  32.4991178  38.6466370  30.4372294
  33.9217060  38.2177367  30.1471142  39.8325326  31.2018146  22.6832819
  39.9541237  30.2734792  22.8823706  39.5427369  31.2156832  21.7711134
  42.7016517  28.8873057  25.8199538  42.7238213  28.9512390  24.8651518
  43.1184576  28.0477565  26.0140045  34.2760345  44.8841887  25.2292572
  35.1018365  44.5845659  24.8491215  33.9254397  44.1149510  25.6782360
  32.4768950  42.8028214  26.1881505  31.6400859  42.3750388  26.0065506
  32.4492596  42.9960657  27.1252296  38.8055385  42.7872279  20.7748706
  38.9543506  43.4707743  20.1215378  39.6121829  42.7677369  21.2898161
  36.5608018  38.8137457  21.7809775  36.3154060  37.9099787  21.9789985
  36.7303933  38.8154607  20.8389253  44.2504728  29.6861133  31.1634530
  44.7686672  30.4222160  30.8381019  43.8959861  29.9925126  31.9981289
  35.8303666  34.5465814  19.2795936  35.1372911  34.6210169  18.6235972
  35.5855418  33.7826158  19.8017453  44.5017322  26.1061415  26.6835427
  44.7819076  25.4384604  27.3095853  45.2867929  26.2990511  26.1710091
  46.3940560  31.6134633  30.6166403  45.7990492  31.8939645  29.9212892
  46.1090257  32.1028534  31.3883144  42.6897589  36.6181222  15.5876506
  43.6356694  36.4887430  15.6564924  42.3111834  35.8795884  16.0645934
  48.6619474  28.2837228  25.5503397  48.4644295  27.9752316  26.4346729
  49.2719179  29.0098867  25.6801327  40.8740506  34.5431198  15.5231391
  39.9671962  34.2464311  15.5994104  41.1516487  34.2461017  14.6565677
  31.7918447  35.8637562  25.9730437  31.4721231  35.0102870  25.6804811
  31.2451875  36.0786140  26.7288405  42.4902572  29.0868088  21.6775632
  41.6803300  28.7415173  22.0530878  43.1786989  28.7775632  22.2663244
  44.4193120  28.1646135  23.2999929  44.9724159  28.5841588  23.9589952
  44.6563207  27.2381883  23.3422885  39.6439291  31.4018134  15.6643370
  40.5058455  31.7273032  15.9239187  39.8289635  30.6149630  15.1516436
  31.6606707  39.4840473  27.9423559  30.9670178  39.0694426  27.4293513
  32.4079698  39.5261010  27.3456978  47.7971928  30.2746660  22.8078593
  47.2170597  30.9331464  22.4256645  47.5307860  29.4524005  22.3966011
  46.2475494  29.6751718  25.0099913  46.7475272  29.7868252  24.2014232
  46.8911102  29.3712771  25.6500722  33.5743449  39.4158727  25.8189574
  33.5514137  39.5146414  24.8671457  33.8844086  40.2623878  26.1406740
  46.5796806  32.4346751  21.8634941  45.6922661  32.7196401  21.6455136
  46.9950795  32.2740514  21.0162218  49.9311342  32.4593272  25.5789281
  50.7071732  32.9489724  25.8513897  49.2059476  32.8851326  26.0361150
  52.3683900  33.1720891  26.6363221  52.9628391  32.9316627  25.9256529
  52.4410484  32.4528021  27.2636758  34.5881056  47.0154502  26.9506386
  34.4535524  46.2554903  26.3844384  34.1713118  47.7395402  26.4835175
  45.7240019  42.1991425  15.9582961  46.4275869  42.4041428  16.5740617
  45.0002668  42.7668187  16.2232045  46.5537829  37.9501286  22.0785232
  46.4973031  38.4069838  21.2392864  47.1066172  37.1891971  21.9008074
  50.3642635  33.7391018  22.9035351  50.1079569  33.3387654  23.7343559
  49.7395503  34.4534812  22.7785490  37.7450182  47.9123819  27.1624829
  37.6282566  48.8569251  27.0603519  36.9242628  47.6097380  27.5510628
  47.2872609  39.1406068  19.3737761  47.2321412  38.9750339  18.4326205
  46.6618664  39.8482101  19.5299950  32.0765124  34.3774132  33.1999183
  32.7223987  33.8673086  33.6886408  31.8682275  35.1142814  33.7742608
  40.5968734  28.6414177  18.9523079  40.5847404  29.5856017  19.1091350
  41.4892156  28.4584322  18.6582540  44.4120854  25.2356953  23.2069016
  43.6453249  24.6815440  23.3525698  44.8231558  25.3078822  24.0683168
  48.9678952  48.9358729  15.7214281  48.0908418  48.8147530  15.3576527
  49.4436705  48.1444807  15.4693169  43.3162705  58.1320131  26.1881505
  42.4794613  57.7042306  26.0065506  43.2886350  58.3252575  27.1252296
  58.9929822  60.2115347  16.3372983  58.9143453  59.8775211  17.2308741
  59.8139489  60.7037115  16.3364455  56.5633773  57.5283343  15.9582961
  57.2669624  57.7333345  16.5740617  55.8396422  58.0960105  16.2232045
  65.3480827  73.9569395  19.3409479  64.6968806  74.5423476  18.9543492
  66.1425189  74.4875590  19.4004516  59.2736454  71.0458533  19.7396613
  60.0467330  70.4987520  19.6009489  59.6261853  71.9102782  19.9511074
  61.6102732  67.2051199  17.3715063  61.8628252  66.6832720  16.6098526
  60.6727291  67.0417344  17.4741747  66.8256092  71.6459827  19.8778463
  66.1901925  71.7194454  20.5899368  66.4953498  72.2353426  19.1997542
  72.0554442  66.1462210  26.0822785  72.7879614  65.5761427  26.3160614
  71.2993797  65.7583811  26.5229290  61.3299020  69.1079305  19.5739438
  61.2135279  68.4324208  20.2420522  61.4401280  68.6211679  18.7571591
  61.0532161  78.8240651  22.9084274  60.9756191  79.7748476  22.9872754
  60.4493805  78.4786523  23.5659200  67.2751103  70.9483110  33.7235769
  67.6834459  70.5065520  32.9790401  66.5528365  70.3735737  33.9769962
  71.4769150  72.4438738  24.8332422  70.7920188  72.8237640  24.2829455
  71.5612999  73.0534065  25.5664370  68.7320081  70.0898697  31.4327765
  68.9436976  70.7330457  30.7562146  68.6849829  69.2561014  30.9649695
  69.8465909  72.9670653  29.6050123  70.6683353  72.5650840  29.3232804
  69.8428312  72.8638887  30.5566238  77.9371902  69.3109401  25.9535094
  77.1835611  68.7416799  25.7979099  78.0719443  69.2772066  26.9005729
  63.3270530  74.1822804  21.6289813  63.1916205  75.0274339  22.0574661
  63.8680343  74.3842081  20.8655747  56.7799928  71.6998242  22.2017739
  57.2924448  72.4941492  22.3523303  57.4322640  71.0024532  22.1351340
  58.5894812  74.8163998  24.2840492  58.7661441  75.7381963  24.0961476
  59.3851646  74.5022417  24.7134872  64.9539007  74.8046370  35.7590156
  64.5102861  74.0182749  35.4411060  65.6156220  74.9925521  35.0934046
  67.0520245  75.0849170  33.7871557  67.0338720  75.9058051  33.2951826
  67.9740165  74.9603245  34.0121698  63.5093299  72.5993300  34.6295065
  64.0421636  71.8381588  34.3994373  62.9807380  72.3066951  35.3719220
  66.6413276  67.6961977  18.6661142  66.1259900  68.4666581  18.9049529
  66.3690585  67.0227113  19.2894203  71.6147551  70.4494331  20.6014316
  70.8376993  70.1105491  20.1569478  72.2939032  70.4546954  19.9269281
  64.8746012  71.7279292  22.1413877  64.3467373  70.9932052  21.8287115
  64.3733514  72.5053968  21.8953846  69.8538858  69.9228313  27.2580923
  69.1962532  70.6127574  27.3461052  70.6579257  70.3124744  27.6014910
  68.6644316  68.2772685  25.3084865  69.1776198  68.9102677  25.8106575
  69.3145540  67.6773881  24.9428225  63.0198612  69.5459502  15.1448850
  62.1125673  69.3148756  15.3439999  63.5169644  68.7497122  15.3322832
  65.9266691  78.2557010  18.0645536  65.2528389  78.5588706  18.6730494
  66.3132513  79.0586090  17.7150993  64.1986845  69.6472097  19.6672840
  63.2898064  69.3631130  19.7645310  64.2281929  70.0671176  18.8076147
  69.4306113  73.2578687  23.4364008  68.9768440  72.4169597  23.4929198
  68.8000079  73.8940085  23.7738788  67.8739052  75.0955183  24.3713826
  68.1662026  75.6560240  23.6526192  68.3837672  75.3883744  25.1266985
  63.8962933  71.1880841  17.0060919  63.4582363  70.4716700  16.5466556
  64.6373374  71.4156956  16.4446010  62.8372677  75.8735534  25.4607279
  62.7948856  76.0996381  24.5315811  63.7535376  75.6398909  25.6093080
  72.0136048  69.4638038  23.0637237  71.8753946  69.6539634  22.1358427
  71.6572267  70.2257421  23.5205289  72.0405427  71.5314565  28.0748509
  72.4741934  71.4389854  28.9231563  72.7537008  71.5072065  27.4368525
  60.9538478  72.7498563  25.2569242  61.7479076  72.2548884  25.0551817
  60.2430170  72.2216427  24.8936948  65.7733322  75.1316659  29.6081610
  65.8270345  75.7007595  30.3759325  64.9048104  75.3018544  29.2435647
  72.9020977  71.5738266  30.6081394  73.0956867  72.4784076  30.8540669
  72.8021595  71.1145685  31.4419979  67.9636086  71.7245008  36.1822275
  67.8121592  71.4955560  35.2652359  67.9540765  72.6815610  36.1953620
  64.1257906  78.4236682  20.2792616  64.3009661  77.9524725  21.0938238
  63.4390694  79.0502448  20.5073876  68.0174161  70.0465222  16.5992976
  67.4003331  69.3212051  16.5026029  67.5490649  70.8074583  16.2560051
  69.6728292  74.7564131  34.2598757  69.6140838  74.0723351  33.5929340
  70.0747811  75.4983121  33.8079383  58.6918991  81.5726045  27.0532476
  58.9315589  82.2044569  27.7311494  57.8488187  81.2214085  27.3397835
  59.8072706  64.2650647  15.7214281  58.9302173  64.1439448  15.3576527
  60.2830460  63.4736725  15.4693169  69.6745699  72.7203715  32.4912737
  68.7872478  72.3829637  32.6139135  70.2444251  71.9886746  32.7281502
  63.2046853  77.3805167  29.4573980  63.1317024  78.1860139  29.9693284
  62.7624246  77.5797133  28.6322001  62.9936632  76.6176937  22.9676801
  62.2104154  77.1598617  23.0615026  63.6929378  77.1350917  23.3671042
  74.1563040  68.1311932  27.2529298  74.1452916  69.0136648  26.8823231
  73.2880419  67.7783483  27.0583835  65.6645536  77.2792001  31.6132138
  66.3773509  77.9139466  31.5408040  65.1735565  77.3755867  30.7972140
  67.3863063  71.1843254  23.1849430  66.4519342  71.3044716  23.0154134
  67.5639732  70.2815721  22.9209440  70.7735615  67.0260573  23.7199464
  71.2396067  67.8588565  23.6459767  71.2243115  66.5605555  24.4244723
  68.8411846  73.3704394  20.7185616  69.1171690  73.2560989  21.6279490
  67.9716344  72.9721879  20.6797789  68.5158736  67.5831052  30.2590260
  67.8630186  67.8306960  29.6042712  68.8939116  66.7695190  29.9252737
  65.4765910  77.6190745  24.3618430  65.6588304  76.8012401  24.8246182
  66.2998896  77.8358438  23.9243320  65.8108075  76.5458930  21.6233478
  66.3395842  76.0351385  21.0103640  66.0736295  76.2301461  22.4879011
  64.5646309  68.3250863  36.7456297  63.8886946  68.2244992  37.4158672
  65.3873943  68.1690077  37.2092294  59.1663823  77.5974047  24.3831254
  58.4974198  78.0820175  23.8995294  59.0276693  77.8443268  25.2974633
  63.3069092  79.6317791  30.9813913  63.8587400  79.7949412  31.7462998
  63.6475285  80.2222228  30.3093937  68.1579966  74.4579048  36.8362567
  68.7019870  75.0709006  36.3417522  67.5766811  75.0158627  37.3529580
  66.4437479  77.5799766  27.9677595  66.3188619  76.7789506  27.4588540
  67.1016570  78.0745959  27.4791565  68.5072387  75.3808786  29.5957145
  67.5602723  75.2614137  29.5235472  68.8555161  74.4931284  29.6783406
  65.5118821  75.1761502  25.7961497  65.3643783  74.2478210  25.9769067
  66.3372314  75.1981593  25.3118572  69.1152943  75.9990061  26.8826370
  70.0399490  75.7932922  26.7450821  68.9468246  75.7506462  27.7915711
  68.9048259  76.5175729  22.2388461  69.0785136  75.9522151  21.4862314
  69.3977150  77.3176623  22.0567951  74.7587650  69.2812152  23.8578761
  75.2018796  68.5319477  23.4597884  73.8814160  69.2722288  23.4752493
  69.8923431  75.8342493  19.3385360  70.5874336  76.4549186  19.5572674
  70.2346581  74.9837844  19.6137737  71.7914854  73.2842199  20.8672690
  72.3166179  73.6229471  20.1422010  71.7037207  72.3489214  20.6835825
  63.4534903  77.1976272  32.9962567  63.7622030  76.9525419  33.8685267
  64.2510385  77.4022911  32.5081437  63.4755515  79.3514182  25.2267944
  63.0360505  78.8590561  25.9200800  64.2263632  78.8087149  24.9860019
  55.9547854  75.5425723  25.2292572  56.7805874  75.2429495  24.8491215
  55.6041906  74.7733345  25.6782360  54.1556459  73.4612049  26.1881505
  53.3188368  73.0334223  26.0065506  54.1280105  73.6544492  27.1252296
  71.4808760  73.9175102  36.1723888  70.6904304  73.8999241  35.6328388
  71.2442115  74.4563396  36.9272925  71.6006636  70.7667569  33.4856617
  71.6504640  70.6017576  34.4272140  71.4920559  69.8994828  33.0954498
  60.4842894  73.4456114  20.7748706  60.6331015  74.1291579  20.1215378
  61.2909338  73.4261204  21.2898161  68.8910398  66.7498497  34.8015924
  69.7920261  66.6104961  34.5099921  68.9658372  66.9152951  35.7414101
  73.1024832  73.1864510  33.7298638  72.8109641  73.5494491  34.5662099
  72.4896964  72.4731518  33.5511970  74.3020515  70.7517390  26.2501209
  75.1367406  71.1907194  26.4138769  74.4379643  70.2756043  25.4309454
  71.3512021  68.3097125  32.1978696  71.8266142  68.5024771  31.3897548
  70.4277586  68.3656311  31.9522080  63.9838300  75.9404245  18.2460453
  63.4112267  76.5594432  17.7930925  64.5571093  76.4903606  18.7800375
  67.2035560  76.2241395  19.3769035  68.1366233  76.1586956  19.5801911
  67.1158772  77.0597662  18.9183568  69.8323576  75.5407265  16.3372983
  69.7537208  75.2067129  17.2308741  70.6533243  76.0329033  16.3364455
  72.5301767  68.4069004  29.5449302  72.4978087  67.4685005  29.7308985
  73.1402391  68.4853041  28.8115127  64.3685098  67.2765057  15.5876506
  65.3144203  67.1471266  15.6564924  63.9899343  66.5379719  16.0645934
  78.3478317  69.4685011  28.6855338  79.0781706  69.2070299  29.2463042
  77.7385263  68.7313733  28.7257406  76.4293614  67.6092874  29.2829790
  75.7026778  67.4748839  28.6746281  76.0140901  67.9169703  30.0886508
  64.2523791  71.3282804  37.0477163  65.1726800  71.5061403  37.2417209
  64.2173374  70.3838849  36.8956862  62.5528015  65.2015034  15.5231391
  61.6459471  64.9048147  15.5994104  62.8303996  64.9044852  14.6565677
  61.3226800  62.0601969  15.6643370  62.1845964  62.3856867  15.9239187
  61.5077144  61.2733465  15.1516436  74.0471409  63.8304726  26.6363221
  74.6415900  63.5900462  25.9256529  74.1197993  63.1111857  27.2636758
  56.2668565  77.6738337  26.9506386  56.1323033  76.9138738  26.3844384
  55.8500627  78.3979237  26.4835175  67.4027528  72.8575261  15.9582961
  68.1063378  73.0625263  16.5740617  66.6790177  73.4252022  16.2232045
  72.0430144  64.3974854  22.9035351  71.7867078  63.9971489  23.7343559
  71.4183012  65.1118648  22.7785490  76.3542482  67.1370927  25.4106642
  75.7942040  67.2064116  26.1838204  75.7485985  66.9611912  24.6906139
  59.4237691  78.5707654  27.1624829  59.3070075  79.5153087  27.0603519
  58.6030137  78.2681216  27.5510628  69.3114225  73.2957790  18.0081421
  70.1459829  72.8638988  17.8258896  69.1498568  73.1239803  18.9358316
  68.9660118  69.7989903  19.3737761  68.9108921  69.6334174  18.4326205
  68.3406173  70.5065936  19.5299950  66.2806025  72.1038815  38.6991323
  67.1497184  72.2779467  38.3377958  65.8012776  72.9233232  38.5767053
  60.4492205  79.2235916  30.3780757  61.3519452  79.2559526  30.6947252
  60.2229575  78.2936367  30.3927093  62.2045807  77.9766902  27.0390836
  61.2541438  77.9768764  26.9255208  62.5078293  77.2299637  26.5226870
  77.9398500  83.8127441  28.1036598  78.5776910  83.6934188  27.3999938
  77.8219343  84.7608285  28.1624550  74.7488207  83.7654869  28.0398123
  74.4106718  83.6495934  27.1518658  75.6177975  83.3646034  28.0199129
  70.6075022  85.6190345  24.0295014  70.0439888  85.5280282  23.2611302
  70.4927418  84.7990250  24.5097506  75.2307990  84.9189721  33.9984328
  75.2196631  84.5242519  33.1264832  75.3928629  84.1855793  34.5918100
  68.1539454  87.1141537  26.8679234  68.9460746  86.7732362  26.4525534
  68.3936105  87.2236512  27.7881388  76.1874581  89.2861313  19.3409479
  75.5362561  89.8715394  18.9543492  76.9818944  89.8167508  19.4004516
  70.1130208  86.3750450  19.7396613  70.8861084  85.8279437  19.6009489
  70.4655607  87.2394700  19.9511074  71.9515251  87.7026833  32.9463512
  71.6605117  88.6072463  32.8310179  72.5872235  87.7443360  33.6607582
  72.8771458  85.0803681  29.5364872  73.4735030  84.8559703  28.8221835
  72.9346429  84.3388427  30.1390320  72.4496486  82.5343116  17.3715063
  72.7022007  82.0124638  16.6098526  71.5121045  82.3709262  17.4741747
  77.4939769  81.5378895  25.1789806  78.2802858  81.1198318  24.8280223
  77.7578473  82.4424987  25.3471455  77.6649846  86.9751745  19.8778463
  77.0295679  87.0486372  20.5899368  77.3347253  87.5645344  19.1997542
  82.8948196  81.4754128  26.0822785  83.6273368  80.9053345  26.3160614
  82.1387552  81.0875728  26.5229290  72.1692775  84.4371222  19.5739438
  72.0529033  83.7616126  20.2420522  72.2795035  83.9503596  18.7571591
  74.5124316  83.8981369  23.2786127  74.1482523  83.3711990  23.9899049
  75.3691432  83.5079838  23.1052613  80.4173616  75.1875702  30.5417393
  80.0856941  76.0571113  30.3178608  79.8219230  74.8711986  31.2211424
  74.1529803  78.9271269  18.2747476  74.3204205  79.7951506  18.6417947
  73.9626972  79.0898551  17.3508765  76.9105136  87.3888248  29.9413306
  76.6105859  88.2913287  29.8329113  76.5656196  87.1220431  30.7934459
  70.3617617  83.8402045  25.9750010  69.4368114  83.7078259  26.1827702
  70.6102031  84.6196264  26.4719953  80.3102280  79.9070788  27.6210743
  79.4019157  79.8386197  27.3269504  80.2589876  80.3842733  28.4492569
  74.1319024  81.3828927  19.2594142  74.0118649  81.8285977  20.0979623
  73.4371612  81.7314244  18.7007681  67.7226429  83.4835318  26.8093800
  67.8518810  83.7369797  27.7233211  67.0423880  84.0763026  26.4898455
  71.8925916  94.1532568  22.9084274  71.8149945  95.1040393  22.9872754
  71.2887559  93.8078441  23.5659200  74.3843146  81.3260434  35.5645641
  73.6076480  81.8854354  35.5548505  75.0233709  81.8117217  36.0860511
  82.1763926  78.1087227  29.3988617  81.5338306  78.4019760  28.7528412
  81.6718855  77.9940147  30.2041814  79.8304090  81.8550400  20.0874477
  80.7421946  82.0877787  19.9122174  79.3213737  82.4387444  19.5249555
  72.6389518  84.1345887  35.1263608  73.3804202  84.6730931  34.8498431
  71.9326503  84.7612176  35.2835159  78.1144858  86.2775028  33.7235769
  78.5228214  85.8357438  32.9790401  77.3922119  85.7027655  33.9769962
  74.4675928  81.2147634  31.0969326  75.3137123  81.6387048  31.2403975
  74.4074565  80.5581259  31.7907889  78.4373672  86.8376218  27.4788058
  77.8082535  87.0021932  26.7764126  78.0499334  87.2517828  28.2499022
  82.3162904  87.7730656  24.8332422  81.6313942  88.1529557  24.2829455
  82.4006753  88.3825983  25.5664370  77.6175373  78.8752003  32.7550500
  77.3736305  79.6294063  32.2184775  77.8935303  79.2537350  33.5897747
  79.5713836  85.4190615  31.4327765  79.7830731  86.0622375  30.7562146
  79.5243584  84.5852932  30.9649695  77.1740065  78.0308436  28.3364337
  76.3124544  78.3289689  28.6281075  77.2002499  78.2478835  27.4045370
  73.9901634  86.5750626  24.7438143  74.4539980  86.8538329  23.9542766
  73.7258432  85.6734071  24.5611234  70.8825715  86.1222108  27.6817906
  71.4527072  86.5509376  27.0435391  71.4733827  85.8404693  28.3802092
  72.9270520  82.6973779  21.5527708  73.6294563  83.1494822  22.0201635
  72.5951149  82.0557598  22.1807601  71.3750882  81.2885535  35.9278918
  70.7449542  81.9701816  36.1614314  71.2686969  81.1768617  34.9832056
  66.6695854  80.9557331  26.8544842  65.8794908  81.2114860  26.3784952
  67.1607101  81.7705669  26.9596882  80.6859664  88.2962571  29.6050123
  81.5077107  87.8942758  29.3232804  80.6822066  88.1930805  30.5566238
  68.6210599  81.3201911  23.8128319  67.8241763  81.4320605  24.3311814
  68.3936192  81.6588563  22.9469209  74.4516267  87.8446614  31.7610833
  74.5160700  88.3067021  32.5969005  73.7427191  87.2143979  31.8893143
  64.9533557  81.2087822  29.2859833  65.2041595  82.0934832  29.5517409
  65.4893105  81.0292423  28.5134924  88.7765657  84.6401319  25.9535094
  88.0229365  84.0708717  25.7979099  88.9113198  84.6063984  26.9005729
  74.1664285  89.5114721  21.6289813  74.0309959  90.3566257  22.0574661
  74.7074097  89.7133999  20.8655747  70.6531624  75.5906301  38.2904169
  70.2598570  75.0372500  38.9651813  71.4697765  75.9016880  38.6810686
  67.6193682  87.0290159  22.2017739  68.1318203  87.8233410  22.3523303
  68.2716395  86.3316450  22.1351340  69.4288567  90.1455916  24.2840492
  69.6055195  91.0673880  24.0961476  70.2245400  89.8314335  24.7134872
  73.5699585  77.0064180  35.8824425  74.3109299  77.6071333  35.8028888
  73.8017508  76.2641818  35.3242468  68.7140923  82.1920548  34.1602655
  68.5994438  81.2905805  34.4609754  67.8585441  82.4384244  33.8087471
  75.7932761  90.1338288  35.7590156  75.3496615  89.3474666  35.4411060
  76.4549975  90.3217438  35.0934046  70.5519882  91.6634089  30.2850834
  71.1027307  91.5351153  29.5127828  69.7131358  91.9628978  29.9345727
  77.8913999  90.4141088  33.7871557  77.8732474  91.2349969  33.2951826
  78.8133919  90.2895163  34.0121698  74.3487053  87.9285217  34.6295065
  74.8815390  87.1673505  34.3994373  73.8201134  87.6358869  35.3719220
  77.5156748  73.0345283  30.1588707  77.1721018  73.9246925  30.0827818
  77.8835711  72.8446941  29.2958292  65.5842599  85.3578814  22.9777309
  66.4217821  85.7675822  22.7611017  65.7620867  84.4178256  22.9477503
  77.4807031  83.0253894  18.6661142  76.9653654  83.7958499  18.9049529
  77.2084339  82.3519030  19.2894203  75.0654142  77.8703595  23.7246380
  74.2095738  77.4810445  23.5452019  75.4781094  77.9495556  22.8646166
  76.5953289  75.4049938  28.1237940  76.0918084  75.3680074  27.3105745
  76.8883896  76.3142681  28.1834597  72.8396175  75.4888668  27.1304122
  73.7049171  75.2931477  26.7710011  72.9073683  75.2599020  28.0573479
  82.4541305  85.7786249  20.6014316  81.6770748  85.4397408  20.1569478
  83.1332786  85.7838872  19.9269281  77.2693334  80.8980986  20.4920923
  76.9643470  81.2127136  21.3431066  78.2223776  80.9762406  20.5348256
  75.7139766  87.0571210  22.1413877  75.1861128  86.3223969  21.8287115
  75.2127269  87.8345886  21.8953846  80.6932612  85.2520230  27.2580923
  80.0356286  85.9419492  27.3461052  81.4973011  85.6416662  27.6014910
  70.4458494  77.7190876  24.5020489  71.0202246  77.4966058  23.7693682
  71.0329476  77.7879571  25.2549090  79.5038071  83.6064603  25.3084865
  80.0169953  84.2394595  25.8106575  80.1539295  83.0065798  24.9428225
  70.7728081  79.7495337  18.5216374  69.9365393  80.0870024  18.8425649
  70.6332850  79.6144317  17.5843511  72.7481161  74.5932125  23.2295558
  72.0945574  74.2781142  22.6052173  72.7061635  73.9707865  23.9555381
  75.9818902  81.0814058  27.5543206  75.0641463  81.3029005  27.3964894
  76.3979045  81.1560369  26.6954913  76.7653949  82.4805474  22.6845886
  77.5125768  82.9926871  22.3753008  77.0345539  82.1589527  23.5450280
  75.0380600  84.9764015  19.6672840  74.1291819  84.6923048  19.7645310
  75.0675683  85.3963093  18.8076147  80.2699867  88.5870604  23.4364008
  79.8162194  87.7461514  23.4929198  79.6393834  89.2232003  23.7738788
  79.2132787  79.5162590  24.6664675  78.4755543  79.0039977  24.9974918
  79.4659560  79.0762972  23.8547952  78.7132806  90.4247101  24.3713826
  79.0055781  90.9852158  23.6526192  79.2231427  90.7175662  25.1266985
  79.3144414  72.2938842  25.2606445  79.6203291  71.4336206  24.9732360
  80.0397019  72.8856463  25.0605439  65.6068770  82.6969529  23.6488043
  65.4093170  82.1038890  22.9239109  65.0515434  82.3921739  24.3663981
  73.5865494  82.5892635  25.7682636  73.6414103  81.6366472  25.6925112
  72.7756696  82.7452075  26.2523934  71.5257854  81.2069695  23.5273015
  70.7125719  81.5063866  23.9338207  72.0216848  80.8125384  24.2447497
  73.6766431  91.2027452  25.4607279  73.6342610  91.4288298  24.5315811
  74.5929130  90.9690827  25.6093080  77.1232065  81.6711520  32.3587908
  77.4781453  81.8982993  33.2182374  77.7704196  82.0029896  31.7365164
  82.8529802  84.7929956  23.0637237  82.7147701  84.9831552  22.1358427
  82.4966021  85.5549338  23.5205289  71.0171928  78.7788051  29.1434249
  71.6571308  78.6376810  28.4457213  70.1849459  78.4922564  28.7672851
  82.8799182  86.8606483  28.0748509  83.3135688  86.7681772  28.9231563
  83.5930763  86.8363983  27.4368525  71.7932232  88.0790481  25.2569242
  72.5872831  87.5840801  25.0551817  71.0823925  87.5508344  24.8936948
  76.6127077  90.4608577  29.6081610  76.6664099  91.0299513  30.3759325
  75.7441858  90.6310462  29.2435647  68.1014996  82.2233563  21.3328995
  67.1712584  82.1618018  21.5498957  68.1972468  81.7009516  20.5365636
  68.0200545  78.7488376  23.9207236  68.2807362  79.6633709  23.8116397
  68.8417717  78.2812818  24.0703849  69.4925470  80.1626133  31.0906061
  70.1648524  79.9543495  30.4418710  68.6655257  79.9648219  30.6511293
  83.7414731  86.9030183  30.6081394  83.9350621  87.8075994  30.8540669
  83.6415350  86.4437602  31.4419979  75.3951042  76.7888074  33.1071722
  74.7478957  77.4878023  33.0136198  76.1652058  77.2224218  33.4747970
  78.8029840  87.0536926  36.1822275  78.6515346  86.8247478  35.2652359
  78.7934520  88.0107527  36.1953620  75.5715176  84.6268839  31.1668541
  76.5007236  84.7779998  30.9937509  75.1506206  84.7152860  30.3117188
  74.3703508  88.6519503  28.9367079  74.2314594  88.2838288  29.8093017
  73.5818104  89.1667143  28.7651037  75.9208723  88.0301106  26.3255917
  75.5858556  87.9901876  27.2213567  75.4212669  87.3645822  25.8526327
  69.8952967  83.4368736  31.8508498  69.7572765  82.7048975  32.4520037
  70.8057891  83.3477636  31.5692686  72.5235268  83.1488695  31.3392178
  73.2334887  82.5081887  31.2978796  72.4804576  83.4001590  32.2618358
  71.2364202  80.1353913  33.1587817  70.7001559  79.6844652  33.8109413
  70.6480910  80.2699822  32.4158281  69.5312746  96.9017962  27.0532476
  69.7709344  97.5336487  27.7311494  68.6881942  96.5506002  27.3397835
  70.6466461  79.5942564  15.7214281  69.7695927  79.4731365  15.3576527
  71.1224214  78.8028643  15.4693169  80.5139454  88.0495632  32.4912737
  79.6266233  87.7121554  32.6139135  81.0838005  87.3178664  32.7281502
  62.1668601  84.3819724  25.8155788  62.8539641  84.0681454  25.2276803
  62.0116730  85.2861089  25.5423039  66.9703323  79.2709921  30.2440812
  66.8861512  78.6635590  29.5091222  66.1486030  79.7618939  30.2450308
  74.0440607  92.7097085  29.4573980  73.9710779  93.5152056  29.9693284
  73.6018000  92.9089051  28.6322001  73.8330387  91.9468855  22.9676801
  73.0497909  92.4890535  23.0615026  74.5323132  92.4642834  23.3671042
  77.1427037  77.7563484  25.6111007  77.6395737  77.0033447  25.2912077
  76.3714019  77.7927801  25.0454216  84.9956795  83.4603850  27.2529298
  84.9846671  84.3428565  26.8823231  84.1274174  83.1075401  27.0583835
  76.5039291  92.6083919  31.6132138  77.2167263  93.2431384  31.5408040
  76.0129320  92.7047785  30.7972140  78.2256818  86.5135172  23.1849430
  77.2913097  86.6336634  23.0154134  78.4033486  85.6107638  22.9209440
  73.7262006  79.8980867  25.3382691  73.3559793  79.3451908  26.0263597
  74.2221098  79.2939001  24.7857691  81.6129369  82.3552491  23.7199464
  82.0789821  83.1880482  23.6459767  82.0636870  81.8897472  24.4244723
  71.5551204  90.3578362  32.4337709  72.2560664  90.9914845  32.5867103
  71.0846319  90.6993094  31.6733348  79.6805600  88.6996312  20.7185616
  79.9565444  88.5852907  21.6279490  78.8110099  88.3013797  20.6797789
  79.5846032  74.7233078  27.7590366  78.6709112  74.9537305  27.9272572
  80.0139133  74.8071522  28.6104398  79.3552490  82.9122970  30.2590260
  78.7023941  83.1598877  29.6042712  79.7332870  82.0987108  29.9252737
  76.3159664  92.9482663  24.3618430  76.4982059  92.1304319  24.8246182
  77.1392650  93.1650355  23.9243320  76.6501830  91.8750848  21.6233478
  77.1789596  91.3643303  21.0103640  76.9130049  91.5593378  22.4879011
  75.4040063  83.6542781  36.7456297  74.7280700  83.5536910  37.4158672
  76.2267697  83.4981995  37.2092294  67.1518922  89.8914717  29.3668812
  67.7372359  89.1458405  29.4996716  66.9543761  90.2018674  30.2505476
  70.0057578  92.9265965  24.3831254  69.3367953  93.4112092  23.8995294
  69.8670447  93.1735185  25.2974633  61.7436577  82.4620318  28.0873255
  61.7820677  81.9283908  28.8810373  61.2376870  81.9355523  27.4684232
  74.1462846  94.9609708  30.9813913  74.6981154  95.1241330  31.7462998
  74.4869040  95.5514146  30.3093937  69.1227340  77.3084858  31.5835797
  69.1868666  78.1699689  31.1713195  69.0594460  76.6958860  30.8508156
  68.5979612  79.3807991  35.2308832  69.2251651  78.9985068  35.8446356
  67.7407531  79.1622193  35.5964524  78.9973721  89.7870966  36.8362567
  79.5413625  90.4000924  36.3417522  78.4160565  90.3450544  37.3529580
  65.3745155  81.1884420  21.1627186  65.6698596  80.2795098  21.1094240
  64.4733191  81.1672159  20.8408189  77.2831234  92.9091684  27.9677595
  77.1582373  92.1081424  27.4588540  77.9410325  93.4037877  27.4791565
  68.9039402  79.2640416  27.1454735  68.1825988  79.8776384  27.0062208
  69.6932658  79.7998181  27.0671381  79.3466142  90.7100704  29.5957145
  78.3996477  90.5906055  29.5235472  79.6948915  89.8223202  29.6783406
  71.7065715  76.5994843  33.4195387  72.2300117  76.8457139  34.1821696
  71.4878049  77.4314878  32.9998524  67.1032996  78.8698517  21.2866512
  66.7745703  77.9895896  21.1041617  67.4572367  78.8146186  22.1742901
  76.3512575  90.5053420  25.7961497  76.2037538  89.5770128  25.9769067
  77.1766069  90.5273511  25.3118572  70.2174820  79.1571487  21.6541989
  70.5570892  79.6857408  20.9320598  70.6646940  79.4951893  22.4300556
  79.9546697  91.3281979  26.8826370  80.8793245  91.1224840  26.7450821
  79.7862000  91.0798380  27.7915711  72.9118260  77.5408538  31.1045057
  72.5715081  76.7416351  31.5065737  72.2057267  77.8410249  30.5321890
  73.5634732  74.6257850  29.5572380  74.3860802  74.1518329  29.4351271
  73.8072796  75.4048334  30.0571067  72.2042967  77.6546109  19.8535282
  72.9251329  78.0327362  19.3498999  71.5808271  78.3734986  19.9570260
  76.3474090  78.3591258  20.7893614  76.5637704  79.2415896  20.4882442
  75.8668157  77.9677471  20.0599256  71.0873311  81.3176971  27.3664359
  70.9417892  81.6317274  28.2588640  70.6098515  81.9361871  26.8135258
  72.9469694  78.3079519  27.4145248  72.9331263  77.4120612  27.0777546
  73.6642122  78.3150183  28.0483535  74.7995825  78.7416859  29.4598376
  74.5413602  79.6633930  29.4582706  74.2680865  78.3447294  30.1498840
  65.5618973  83.8582315  30.3052020  65.0172441  84.6342123  30.4372294
  66.4398323  84.2053120  30.1471142  72.3506590  77.1893899  22.6832819
  72.4722501  76.2610545  22.8823706  72.0608632  77.2032585  21.7711134
  75.2197780  74.8748810  25.8199538  75.2419477  74.9388143  24.8651518
  75.6365839  74.0353318  26.0140045  85.5981404  84.6104069  23.8578761
  86.0412551  83.8611394  23.4597884  84.7207915  84.6014206  23.4752493
  66.3484995  82.9852212  33.1982177  65.6066731  83.1334847  33.7846807
  66.0277739  83.2460477  32.3348926  74.2928658  92.5268190  32.9962567
  74.6015784  92.2817337  33.8685267  75.0904140  92.7314828  32.5081437
  74.3149270  94.6806099  25.2267944  73.8754260  94.1882478  25.9200800
  75.0657387  94.1379067  24.9860019  66.7941609  90.8717640  25.2292572
  67.6199629  90.5721412  24.8491215  66.4435661  90.1025263  25.6782360
  71.7623142  90.2244109  27.2990245  71.1403151  89.5614814  26.9992473
  72.4328009  90.2505240  26.6163893  64.9950214  88.7903967  26.1881505
  64.1582122  88.3626141  26.0065506  64.9673859  88.9836410  27.1252296
  71.8347669  78.7025897  36.8922751  71.8835825  79.5788019  36.5100521
  72.3770184  78.1603290  36.3194394  82.3202515  89.2467020  36.1723888
  81.5298059  89.2291159  35.6328388  82.0835870  89.7855314  36.9272925
  82.4400390  86.0959486  33.4856617  82.4898395  85.9309494  34.4272140
  82.3314313  85.2286745  33.0954498  71.3236649  88.7748032  20.7748706
  71.4724769  89.4583496  20.1215378  72.1303092  88.7553122  21.2898161
  79.7304152  82.0790414  34.8015924  80.6314015  81.9396879  34.5099921
  79.8052127  82.2444869  35.7414101  74.0646958  79.4557269  33.6469110
  73.1950267  79.7490835  33.3751698  74.3006438  80.0397714  34.3676374
  83.9418587  88.5156428  33.7298638  83.6503395  88.8786408  34.5662099
  83.3290718  87.8023436  33.5511970  85.1414269  86.0809308  26.2501209
  85.9761161  86.5199112  26.4138769  85.2773398  85.6047961  25.4309454
  82.1905775  83.6389042  32.1978696  82.6659897  83.8316689  31.3897548
  81.2671340  83.6948228  31.9522080  69.0789282  84.8013210  21.7809775
  68.8335324  83.8975540  21.9789985  69.2485196  84.8030360  20.8389253
  76.7685992  75.6736886  31.1634530  77.2867935  76.4097913  30.8381019
  76.4141124  75.9800879  31.9981289  68.3484929  80.5341567  19.2795936
  67.6554174  80.6085922  18.6235972  68.1036681  79.7701911  19.8017453
  77.0198586  72.0937168  26.6835427  77.3000340  71.4260358  27.3095853
  77.8049193  72.2866264  26.1710091  80.8907444  80.5154802  30.4307002
  81.8424867  80.6152900  30.4519226  80.7210895  79.7233071  30.9405086
  78.9121824  77.6010386  30.6166403  78.3171756  77.8815398  29.9212892
  78.6271520  78.0904287  31.3883144  83.3695522  83.7360922  29.5449302
  83.3371842  82.7976923  29.7308985  83.9796146  83.8144959  28.8115127
  75.2078853  82.6056975  15.5876506  76.1537957  82.4763183  15.6564924
  74.8293098  81.8671637  16.0645934  83.5190010  80.5271966  29.5907585
  83.0029059  79.7430422  29.4037514  84.4029959  80.1990682  29.7554104
  81.1800737  74.2712981  25.5503397  80.9825558  73.9628069  26.4346729
  81.7900443  74.9974620  25.6801327  89.1872072  84.7976929  28.6855338
  89.9175460  84.5362217  29.2463042  88.5779017  84.0605651  28.7257406
  87.2687369  82.9384792  29.2829790  86.5420532  82.8040757  28.6746281
  86.8534656  83.2461620  30.0886508  75.0917545  86.6574721  37.0477163
  76.0120555  86.8353320  37.2417209  75.0567128  85.7130767  36.8956862
  73.3921770  80.5306952  15.5231391  72.4853225  80.2340064  15.5994104
  73.6697751  80.2336770  14.6565677  64.3099710  81.8513315  25.9730437
  63.9902495  80.9978623  25.6804811  63.7633138  82.0661893  26.7288405
  68.0879618  84.5675756  29.6899944  68.3065628  85.4992864  29.7087978
  68.5005392  84.2083730  30.4754748  75.0083836  75.0743841  21.6775632
  74.1984564  74.7290926  22.0530878  75.6968253  74.7651385  22.2663244
  76.9374384  74.1521888  23.2999929  77.4905423  74.5717341  23.9589952
  77.1744470  73.2257636  23.3422885  72.9607483  80.1408962  39.0802693
  72.8604210  81.0903319  39.0114784  72.7429025  79.8127201  38.2078763
  72.1620555  77.3893887  15.6643370  73.0239719  77.7148785  15.9239187
  72.3470899  76.6025383  15.1516436  64.1787970  85.4716226  27.9423559
  63.4851442  85.0570179  27.4293513  64.9260961  85.5136763  27.3456978
  80.3153191  76.2622413  22.8078593  79.7351860  76.9207217  22.4256645
  80.0489124  75.4399758  22.3966011  78.7656757  75.6627471  25.0099913
  79.2656536  75.7744005  24.2014232  79.4092365  75.3588524  25.6500722
  72.8238753  83.5706101  37.8967754  72.3405835  84.3706461  38.1031643
  72.9099692  83.5814045  36.9435198  66.0924713  85.4034480  25.8189574
  66.0695401  85.5022167  24.8671457  66.4025349  86.2499631  26.1406740
  68.7512091  87.4610635  29.9336188  69.7055344  87.4294578  29.8666120
  68.5524614  87.0001259  30.7486414  69.3411473  86.0311751  32.5006986
  70.1604362  86.5255830  32.5241823  69.6148281  85.1143719  32.4724553
  79.0978069  78.4222504  21.8634941  78.2103924  78.7072154  21.6455136
  79.5132058  78.2616267  21.0162218  82.4492605  78.4469025  25.5789281
  83.2252995  78.9365477  25.8513897  81.7240739  78.8727079  26.0361150
  84.8865164  79.1596644  26.6363221  85.4809655  78.9192380  25.9256529
  84.9591747  78.4403774  27.2636758  67.1062319  93.0030255  26.9506386
  66.9716787  92.2430656  26.3844384  66.6894382  93.7271155  26.4835175
  79.0719093  83.9377040  22.0785232  79.0154294  84.3945591  21.2392864
  79.6247435  83.1767724  21.9008074  82.8823899  79.7266771  22.9035351
  82.6260833  79.3263407  23.7343559  82.2576767  80.4410565  22.7785490
  87.1936237  82.4662845  25.4106642  86.6335795  82.5356034  26.1838204
  86.5879740  82.2903829  24.6906139  70.2631445  93.8999572  27.1624829
  70.1463829  94.8445004  27.0603519  69.4423892  93.5973133  27.5510628
  79.8053872  85.1281821  19.3737761  79.7502676  84.9626092  18.4326205
  79.1799927  85.8357854  19.5299950  64.5946387  80.3649885  33.1999183
  65.2405251  79.8548839  33.6886408  64.3863538  81.1018567  33.7742608
  77.1199779  87.4330733  38.6991323  77.9890939  87.6071385  38.3377958
  76.6406531  88.2525149  38.5767053  73.1149998  74.6289930  18.9523079
  73.1028667  75.5731770  19.1091350  74.0073419  74.4460075  18.6582540
  71.2885959  94.5527834  30.3780757  72.1913206  94.5851444  30.6947252
  71.0623330  93.6228285  30.3927093  73.0439561  93.3058820  27.0390836
  72.0935193  93.3060682  26.9255208  73.3472048  92.5591555  26.5226870
  76.9302117  71.2232706  23.2069016  76.1634513  70.6691193  23.3525698
  77.3412822  71.2954575  24.0683168  68.9343878  77.5117502  37.2974197
  69.7975340  77.1554307  37.5077522  68.3609289  77.1731397  37.9849601
  86.0701744 100.2481638  33.9984328  86.0590385  99.8534437  33.1264832
  86.2322384  99.5147711  34.5918100  82.7909005 103.0318750  32.9463512
  82.4998871 103.9364381  32.8310179  83.4265990 103.0735278  33.6607582
  83.7165212 100.4095599  29.5364872  84.3128784 100.1851621  28.8221835
  83.7740184  99.6680344  30.1390320  91.2567371  90.5167620  30.5417393
  90.9250696  91.3863031  30.3178608  90.6612984  90.2003904  31.2211424
  78.5620183  98.8127236  26.8093800  78.6912564  99.0661715  27.7233211
  77.8817634  99.4054944  26.4898455  85.2236900  96.6552351  35.5645641
  84.4470234  97.2146272  35.5548505  85.8627463  97.1409134  36.0860511
  93.0157681  93.4379144  29.3988617  92.3732061  93.7311677  28.7528412
  92.5112609  93.3232065  30.2041814  83.4783272  99.4637805  35.1263608
  84.2197957 100.0022849  34.8498431  82.7720258 100.0904094  35.2835159
  88.9538612 101.6066945  33.7235769  89.3621968 101.1649356  32.9790401
  88.2315873 101.0319573  33.9769962  85.3069682  96.5439552  31.0969326
  86.1530877  96.9678966  31.2403975  85.2468320  95.8873176  31.7907889
  88.4569127  94.2043920  32.7550500  88.2130059  94.9585981  32.2184775
  88.7329058  94.5829268  33.5897747  88.0133819  93.3600353  28.3364337
  87.1518298  93.6581607  28.6281075  88.0396254  93.5770752  27.4045370
  82.2144636  96.6177453  35.9278918  81.5843297  97.2993734  36.1614314
  82.1080724  96.5060535  34.9832056  77.5089609  96.2849249  26.8544842
  76.7188663  96.5406778  26.3784952  78.0000856  97.0997587  26.9596882
  85.2910022 103.1738532  31.7610833  85.3554454 103.6358939  32.5969005
  84.5820945 102.5435896  31.8893143  75.7927312  96.5379739  29.2859833
  76.0435350  97.4226749  29.5517409  76.3286860  96.3584341  28.5134924
  81.4925379  90.9198219  38.2904169  81.0992324  90.3664417  38.9651813
  82.3091519  91.2308797  38.6810686  84.4093340  92.3356098  35.8824425
  85.1503053  92.9363251  35.8028888  84.6411263  91.5933736  35.3242468
  79.5534678  97.5212465  34.1602655  79.4388193  96.6197722  34.4609754
  78.6979196  97.7676162  33.8087471  85.1880808 103.2577135  34.6295065
  85.7209145 102.4965423  34.3994373  84.6594889 102.9650787  35.3719220
  88.3550503  88.3637201  30.1588707  88.0114772  89.2538843  30.0827818
  88.7229465  88.1738859  29.2958292  87.4347043  90.7341856  28.1237940
  86.9311839  90.6971991  27.3105745  87.7277650  91.6434599  28.1834597
  83.6789929  90.8180586  27.1304122  84.5442926  90.6223394  26.7710011
  83.7467438  90.5890938  28.0573479  81.2852248  93.0482794  24.5020489
  81.8596000  92.8257975  23.7693682  81.8723231  93.1171488  25.2549090
  83.5874916  89.9224043  23.2295558  82.9339328  89.6073060  22.6052173
  83.5455390  89.2999783  23.9555381  90.1538168  87.6230760  25.2606445
  90.4597045  86.7628123  24.9732360  90.8790773  88.2148380  25.0605439
  87.9625820  97.0003437  32.3587908  88.3175207  97.2274910  33.2182374
  88.6097951  97.3321814  31.7365164  81.8565683  94.1079968  29.1434249
  82.4965062  93.9668728  28.4457213  81.0243213  93.8214482  28.7672851
  78.8594299  94.0780293  23.9207236  79.1201117  94.9925627  23.8116397
  79.6811472  93.6104736  24.0703849  80.3319225  95.4918051  31.0906061
  81.0042278  95.2835413  30.4418710  79.5049011  95.2940137  30.6511293
  86.2344797  92.1179991  33.1071722  85.5872712  92.8169941  33.0136198
  87.0045812  92.5516135  33.4747970  86.4108931  99.9560756  31.1668541
  87.3400991 100.1071916  30.9937509  85.9899961 100.0444777  30.3117188
  80.7346722  98.7660654  31.8508498  80.5966520  98.0340892  32.4520037
  81.6451645  98.6769554  31.5692686  83.3629023  98.4780613  31.3392178
  84.0728641  97.8373805  31.2978796  83.3198331  98.7293508  32.2618358
  82.0757956  95.4645831  33.1587817  81.5395314  95.0136569  33.8109413
  81.4874665  95.5991740  32.4158281  73.0062356  99.7111642  25.8155788
  73.6933395  99.3973372  25.2276803  72.8510484 100.6153007  25.5423039
  77.8097078  94.6001838  30.2440812  77.7255266  93.9927508  29.5091222
  76.9879784  95.0910857  30.2450308  82.3944959 105.6870280  32.4337709
  83.0954418 106.3206763  32.5867103  81.9240074 106.0285012  31.6733348
  90.4239786  90.0524995  27.7590366  89.5102866  90.2829222  27.9272572
  90.8532888  90.1363440  28.6104398  90.1946245  98.2414887  30.2590260
  89.5417695  98.4890795  29.6042712  90.5726625  97.4279026  29.9252737
  86.2433818  98.9834698  36.7456297  85.5674455  98.8828828  37.4158672
  87.0661452  98.8273912  37.2092294  77.9912677 105.2206635  29.3668812
  78.5766114 104.4750323  29.4996716  77.7937515 105.5310592  30.2505476
  72.5830332  97.7912235  28.0873255  72.6214431  97.2575826  28.8810373
  72.0770625  97.2647441  27.4684232  79.9621094  92.6376776  31.5835797
  80.0262420  93.4991607  31.1713195  79.8988214  92.0250777  30.8508156
  79.4373367  94.7099908  35.2308832  80.0645405  94.3276986  35.8446356
  78.5801285  94.4914110  35.5964524  79.7433156  94.5932334  27.1454735
  79.0219742  95.2068302  27.0062208  80.5326412  95.1290099  27.0671381
  82.5459470  91.9286760  33.4195387  83.0693872  92.1749057  34.1821696
  82.3271803  92.7606795  32.9998524  83.7512015  92.8700456  31.1045057
  83.4108835  92.0708269  31.5065737  83.0451021  93.1702166  30.5321890
  84.4028487  89.9549768  29.5572380  85.2254556  89.4810246  29.4351271
  84.6466550  90.7340252  30.0571067  81.9267065  96.6468889  27.3664359
  81.7811646  96.9609192  28.2588640  81.4492269  97.2653789  26.8135258
  83.7863448  93.6371437  27.4145248  83.7725017  92.7412530  27.0777546
  84.5035876  93.6442100  28.0483535  85.6389579  94.0708777  29.4598376
  85.3807357  94.9925847  29.4582706  85.1074619  93.6739211  30.1498840
  76.4012728  99.1874233  30.3052020  75.8566196  99.9634041  30.4372294
  77.2792077  99.5345038  30.1471142  86.0591535  90.2040727  25.8199538
  86.0813231  90.2680060  24.8651518  86.4759594  89.3645236  26.0140045
  77.1878749  98.3144129  33.1982177  76.4460485  98.4626765  33.7846807
  76.8671494  98.5752395  32.3348926  82.6741424  94.0317814  36.8922751
  82.7229579  94.9079937  36.5100521  83.2163938  93.4895207  36.3194394
  90.5697907  97.4082332  34.8015924  91.4707770  97.2688797  34.5099921
  90.6445881  97.5736787  35.7414101  84.9040712  94.7849187  33.6469110
  84.0344022  95.0782753  33.3751698  85.1400193  95.3689632  34.3676374
  87.6079746  91.0028804  31.1634530  88.1261690  91.7389831  30.8381019
  87.2534879  91.3092797  31.9981289  87.8592340  87.4229086  26.6835427
  88.1394094  86.7552275  27.3095853  88.6442947  87.6158182  26.1710091
  91.7301199  95.8446720  30.4307002  92.6818621  95.9444818  30.4519226
  91.5604649  95.0524989  30.9405086  89.7515578  92.9302303  30.6166403
  89.1565510  93.2107316  29.9212892  89.4665275  93.4196204  31.3883144
  85.9311300 101.9866639  37.0477163  86.8514309 102.1645238  37.2417209
  85.8960883 101.0422684  36.8956862  75.1493465  97.1805233  25.9730437
  74.8296249  96.3270541  25.6804811  74.6026893  97.3953811  26.7288405
  78.9273372  99.8967674  29.6899944  79.1459382 100.8284781  29.7087978
  79.3399146  99.5375648  30.4754748  83.8001238  95.4700879  39.0802693
  83.6997965  96.4195236  39.0114784  83.5822780  95.1419118  38.2078763
  75.0181725 100.8008144  27.9423559  74.3245196 100.3862097  27.4293513
  75.7654716 100.8428681  27.3456978  83.6632508  98.8998018  37.8967754
  83.1799589  99.6998378  38.1031643  83.7493447  98.9105963  36.9435198
  79.5905845 102.7902553  29.9336188  80.5449099 102.7586495  29.8666120
  79.3918369 102.3293177  30.7486414  80.1805227 101.3603669  32.5006986
  80.9998116 101.8547748  32.5241823  80.4542035 100.4435637  32.4724553
  75.4340142  95.6941803  33.1999183  76.0799005  95.1840757  33.6886408
  75.2257293  96.4310484  33.7742608  87.7695871  86.5524624  23.2069016
  87.0028267  85.9983111  23.3525698  88.1806576  86.6246493  24.0683168
  79.7737633  92.8409420  37.2974197  80.6369094  92.4846225  37.5077522
  79.2003043  92.5023315  37.9849601  35.6398704   5.4765418  23.5607874
  36.1838608   6.0895376  23.0662828  35.0585549   6.0344996  24.0774887
  45.4217238  14.8313810  14.8281905  46.0595648  14.7120558  14.1245245
  45.3038081  15.7794654  14.8869857  42.7126728  15.9376090  20.7229635
  42.7015368  15.5428889  19.8510139  42.8747367  15.2042163  21.3163406
  39.4333989  18.7213202  19.6708819  39.1423855  19.6258833  19.5555485
  40.0690973  18.7629730  20.3852889  40.3590196  16.0990051  16.2610179
  40.9553768  15.8746073  15.5467142  40.4165167  15.3574796  16.8635626
  44.3923874  18.4074618  16.6658613  44.0924597  19.3099656  16.5574420
  44.0474933  18.1406801  17.5179766  41.8661883  12.3446803  22.2890947
  41.0895217  12.9040724  22.2793812  42.5052446  12.8303586  22.8105817
  40.1208256  15.1532257  21.8508914  40.8622940  15.6917301  21.5743738
  39.4145241  15.7798545  22.0080466  45.5963595  17.2961397  20.4481076
  46.0046951  16.8543808  19.7035708  44.8740857  16.7214025  20.7015269
  41.9494665  12.2334004  17.8214633  42.7955861  12.6573418  17.9649282
  41.8893303  11.5767628  18.5153196  45.9192410  17.8562588  14.2033365
  45.2901272  18.0208302  13.5009432  45.5318072  18.2704197  14.9744329
  49.7981642  18.7917026  11.5577728  49.1132680  19.1715927  11.0074762
  49.8825491  19.4012352  12.2909676  45.0994111   9.8938372  19.4795806
  44.8555043  10.6480433  18.9430082  45.3754041  10.2723720  20.3143053
  47.0532573  16.4376985  18.1573072  47.2649469  17.0808745  17.4807453
  47.0062322  15.6039301  17.6895002  38.8569619  12.3071905  22.6524224
  38.2268280  12.9888186  22.8859621  38.7505707  12.1954987  21.7077363
  48.1678401  19.3148940  16.3295429  48.9895845  18.9129127  16.0478111
  48.1640804  19.2117174  17.2811545  41.9335005  18.8632983  18.4856140
  41.9979437  19.3253391  19.3214312  41.2245929  18.2330348  18.6138450
  56.2584394  15.6587689  12.6780401  55.5048103  15.0895087  12.5224405
  56.3931936  15.6250353  13.6251035  38.1350362   6.6092671  25.0149475
  37.7417308   6.0558869  25.6897120  38.9516502   6.9203249  25.4055993
  41.0518323   8.0250550  22.6069732  41.7928036   8.6257703  22.5274194
  41.2836246   7.2828188  22.0487774  36.1959661  13.2106917  20.8847962
  36.0813176  12.3092174  21.1855060  35.3404179  13.4570614  20.5332778
  43.2751499  21.1524657  22.4835462  42.8315353  20.3661036  22.1656367
  43.9368712  21.3403808  21.8179353  38.0338620  22.6820459  17.0096141
  38.5846045  22.5537522  16.2373135  37.1950096  22.9815348  16.6591033
  45.3732737  21.4327457  20.5116863  45.3551212  22.2536338  20.0197133
  46.2952657  21.3081533  20.7367005  41.8305791  18.9471587  21.3540372
  42.3634128  18.1859875  21.1239680  41.3019872  18.6545239  22.0964526
  48.1751350  16.2706600  13.9826230  47.5175024  16.9605861  14.0706359
  48.9791749  16.6603032  14.3260216  46.1951544  21.4433471  11.0959133
  46.4874518  22.0038528  10.3771498  46.7050165  21.7362032  11.8512292
  44.6050803  12.6897889  19.0833215  44.9600191  12.9169362  19.9427681
  45.2522934  13.0216266  18.4610470  50.3617920  17.8792852  14.7993816
  50.7954426  17.7868141  15.6476870  51.0749500  17.8550353  14.1613832
  44.0945815  21.4794946  16.3326916  44.1482837  22.0485883  17.1004632
  43.2260596  21.6496831  15.9680953  51.2233469  17.9216553  17.3326701
  51.4169359  18.8262363  17.5785976  51.1234087  17.4623972  18.1665286
  42.8769780   7.8074443  19.8317028  42.2297695   8.5064393  19.7381505
  43.6470795   8.2410587  20.1993277  46.2848578  18.0723296  22.9067582
  46.1334084  17.8433847  21.9897665  46.2753257  19.0293897  22.9198927
  43.0533914  15.6455208  17.8913848  43.9825974  15.7966368  17.7182815
  42.6324944  15.7339229  17.0362495  41.8522246  19.6705873  15.6612386
  41.7133332  19.3024657  16.5338324  41.0636842  20.1853512  15.4896343
  37.3771705  14.4555105  18.5753805  37.2391503  13.7235344  19.1765344
  38.2876629  14.3664006  18.2937992  40.0054006  14.1675065  18.0637484
  40.7153624  13.5268257  18.0224103  39.9623314  14.4187960  18.9863665
  47.9940784  21.1042418  20.9844063  47.9353331  20.4201638  20.3174646
  48.3960303  21.8461408  20.5324689  38.7182940  11.1540283  19.8833124
  38.1820297  10.7031021  20.5354720  38.1299648  11.2886191  19.1403588
  37.0131483  27.9204332  13.7777782  37.2528082  28.5522856  14.4556801
  36.1700680  27.5692372  14.0643142  47.9958192  19.0682002  19.2158043
  47.1084971  18.7307924  19.3384442  48.5656743  18.3365033  19.4526809
  41.5259345  23.7283454  16.1819286  41.4529517  24.5338426  16.6938591
  41.0836738  23.9275420  15.3567308  52.4775532  14.4790219  13.9774605
  52.4665409  15.3614935  13.6068538  51.6092912  14.1261770  13.7829142
  43.9858029  23.6270288  18.3377445  44.6986001  24.2617753  18.2653346
  43.4948057  23.7234154  17.5217447  39.0369942  21.3764732  19.1583016
  39.7379402  22.0101215  19.3112410  38.5665057  21.7179463  18.3978655
  46.8371228  13.9309339  16.9835566  46.1842678  14.1785247  16.3288019
  47.2151608  13.1173478  16.6498043  43.7978402  23.9669033  11.0863736
  43.9800797  23.1490688  11.5491489  44.6211388  24.1836725  10.6488626
  42.8858801  14.6729150  23.4701603  42.2099438  14.5723280  24.1403978
  43.7086435  14.5168364  23.9337600  34.6337660  20.9101087  16.0914119
  35.2191097  20.1644775  16.2242023  34.4362499  21.2205044  16.9750782
  41.6281584  25.9796078  17.7059219  42.1799892  26.1427699  18.4708304
  41.9687778  26.5700516  17.0339244  36.0798350  10.3994360  21.9554138
  36.7070389  10.0171437  22.5691663  35.2226269  10.1808562  22.3209831
  46.4792458  20.8057335  23.5607874  47.0232362  21.4187294  23.0662828
  45.8979303  21.3636914  24.0774887  44.7649971  23.9278053  14.6922901
  44.6401111  23.1267793  14.1833847  45.4229062  24.4224247  14.2036871
  46.8284880  21.7287073  16.3202452  45.8815215  21.6092425  16.2480778
  47.1767653  20.8409571  16.4028713  43.8331313  21.5239790  12.5206804
  43.6856275  20.5956497  12.7014374  44.6584807  21.5459880  12.0363879
  47.4365435  22.3468348  13.6071676  48.3611982  22.1411210  13.4696128
  47.2680738  22.0984750  14.5161018  41.7747395  23.5454559  19.7207874
  42.0834522  23.3003706  20.5930573  42.5722877  23.7501198  19.2326744
  41.7968007  25.6992469  11.9513250  41.3572998  25.2068848  12.6446107
  42.5476124  25.1565437  11.7105325  39.2441880  21.2430478  14.0235552
  38.6221889  20.5801183  13.7237780  39.9146746  21.2691610  13.3409200
  39.3166407   9.7212266  23.6168058  39.3654563  10.5974389  23.2345827
  39.8588921   9.1789659  23.0439701  49.8021253  20.2653389  22.8969195
  49.0116796  20.2477528  22.3573694  49.5654607  20.8041683  23.6518232
  49.9219128  17.1145856  20.2101923  49.9717133  16.9495863  21.1517446
  49.8133051  16.2473115  19.8199804  47.2122890  13.0976784  21.5261230
  48.1132753  12.9583249  21.2345228  47.2870865  13.2631239  22.4659408
  41.5465696  10.4743639  20.3714417  40.6769005  10.7677205  20.0997005
  41.7825176  11.0584084  21.0921680  51.4237325  19.5342797  20.4543945
  51.1322133  19.8972778  21.2907406  50.8109456  18.8209806  20.2757277
  52.6233007  17.0995677  12.9746515  53.4579898  17.5385481  13.1384076
  52.7592136  16.6234330  12.1554761  49.6724513  14.6575412  18.9224003
  50.1478634  14.8503058  18.1142854  48.7490078  14.7134598  18.6767387
  48.3726182  11.5341172  17.1552309  49.3243605  11.6339270  17.1764533
  48.2029632  10.7419441  17.6650393  50.8514260  14.7547292  16.2694608
  50.8190580  13.8163292  16.4554292  51.4614883  14.8331328  15.5360433
  51.0008748  11.5458335  16.3152891  50.4847797  10.7616792  16.1282820
  51.8848697  11.2177052  16.4799411  56.6690810  15.8163299  15.4100645
  57.3994198  15.5548587  15.9708348  56.0597755  15.0792020  15.4502713
  54.7506107  13.9571161  16.0075096  54.0239270  13.8227126  15.3991588
  54.3353394  14.2647990  16.8131814  42.5736283  17.6761091  23.7722469
  43.4939293  17.8539690  23.9662516  42.5385866  16.7317136  23.6202169
  40.4426221  11.1595331  25.8047999  40.3422948  12.1089688  25.7360090
  40.2247763  10.8313570  24.9324069  40.3057491  14.5892470  24.6213061
  39.8224573  15.3892830  24.8276950  40.3918430  14.6000415  23.6680505
  36.2330828  18.4797005  16.6581495  37.1874082  18.4480947  16.5911426
  36.0343352  18.0187629  17.4731721  36.8230211  17.0498121  19.2252292
  37.6423100  17.5442199  19.2487130  37.0967018  16.1330089  19.1969860
  54.6754974  13.4849214  12.1351949  54.1154532  13.5542403  12.9083511
  54.0698478  13.3090199  11.4151445  37.7450183  24.9185941  13.8870135
  37.6282567  25.8631374  13.7848826  36.9242629  24.6159503  14.2755935
  44.6018517  18.4517102  25.4236630  45.4709677  18.6257754  25.0623265
  44.1225269  19.2711519  25.3012359  38.7704697  25.5714203  17.1026064
  39.6731944  25.6037813  17.4192559  38.5442067  24.6414654  17.1172400
  40.5258299  24.3245190  13.7636142  39.5753930  24.3247051  13.6500515
  40.8290785  23.5777924  13.2472177  36.4162616   8.5303872  24.0219504
  37.2794077   8.1740677  24.2322828  35.8428026   8.1917767  24.7094908
  56.2610993  30.1605728  14.8281905  56.8989403  30.0412475  14.1245245
  56.1431836  31.1086572  14.8869857  53.0700699  30.1133156  14.7643429
  52.7319211  29.9974221  13.8763964  53.9390467  29.7124321  14.7444436
  48.9287515  31.9668633  10.7540320  48.3652380  31.8758570   9.9856608
  48.8139910  31.1468537  11.2342813  53.5520482  31.2668008  20.7229635
  53.5409123  30.8720806  19.8510139  53.7141122  30.5334081  21.3163406
  46.4751947  33.4619824  13.5924541  47.2673239  33.1210649  13.1770840
  46.7148597  33.5714799  14.5126694  54.5087073  35.6339600   6.0654785
  53.8575053  36.2193681   5.6788799  55.3031436  36.1645795   6.1249823
  48.4342701  32.7228737   6.4641920  49.2073577  32.1757725   6.3254795
  48.7868099  33.5872987   6.6756381  50.2727743  34.0505120  19.6708819
  49.9817609  34.9550751  19.5555485  50.9084728  34.0921647  20.3852889
  51.1983950  31.4281968  16.2610179  51.7947522  31.2037991  15.5467142
  51.2558922  30.6866714  16.8635626  55.8152261  27.8857182  11.9035113
  56.6015350  27.4676605  11.5525530  56.0790966  28.7903274  12.0716761
  55.9862339  33.3230032   6.6023770  55.3508172  33.3964659   7.3144674
  55.6559745  33.9123631   5.9242849  61.2160688  27.8232415  12.8068091
  61.9485860  27.2531632  13.0405921  60.4600044  27.4354016  13.2474597
  50.4905267  30.7849510   6.2984745  50.3741525  30.1094413   6.9665829
  50.6007527  30.2981883   5.4816898  52.8336808  30.2459657  10.0031434
  52.4695015  29.7190278  10.7144355  53.6903924  29.8558126   9.8297919
  58.7386109  21.5353989  17.2662700  58.4069434  22.4049400  17.0423915
  58.1431722  21.2190273  17.9456730  55.2317628  33.7366535  16.6658613
  54.9318351  34.6391574  16.5574420  54.8868688  33.4698718  17.5179766
  48.6830110  30.1880332  12.6995317  47.7580606  30.0556546  12.9073009
  48.9314523  30.9674551  13.1965259  58.6314772  26.2549075  14.3456050
  57.7231649  26.1864484  14.0514811  58.5802368  26.7321020  15.1737875
  52.4531516  27.7307214   5.9839449  52.3331141  28.1764265   6.8224929
  51.7584104  28.0792532   5.4252987  46.0438921  29.8313606  13.5339106
  46.1731302  30.0848085  14.4478518  45.3636372  30.4241314  13.2143761
  50.2138408  40.5010856   9.6329580  50.1362438  41.4518681   9.7118061
  49.6100052  40.1556728  10.2904507  52.7055638  27.6738721  22.2890947
  51.9288972  28.2332641  22.2793812  53.3446201  28.1595504  22.8105817
  60.4976418  24.4565514  16.1233924  59.8550799  24.7498047  15.4773718
  59.9931347  24.3418434  16.9287121  58.1516582  28.2028687   6.8119783
  59.0634438  28.4356074   6.6367481  57.6426229  28.7865731   6.2494862
  50.9602010  30.4824174  21.8508914  51.7016695  31.0209218  21.5743738
  50.2538996  31.1090463  22.0080466  52.7888420  27.5625922  17.8214633
  53.6349615  27.9865335  17.9649282  52.7287057  26.9059546  18.5153196
  56.7586164  33.1854505  14.2033365  56.1295027  33.3500220  13.5009432
  56.3711827  33.5996115  14.9744329  60.6375396  34.1208943  11.5577728
  59.9526434  34.5007845  11.0074762  60.7219246  34.7304270  12.2909676
  55.9387865  25.2230290  19.4795806  55.6948797  25.9772351  18.9430082
  56.2147796  25.6015638  20.3143053  57.8926328  31.7668902  18.1573072
  58.1043223  32.4100662  17.4807453  57.8456076  30.9331219  17.6895002
  55.4952557  24.3786723  15.0609644  54.6337036  24.6767977  15.3526382
  55.5214992  24.5957122  14.1290677  52.3114126  32.9228914  11.4683450
  52.7752472  33.2016617  10.6788072  52.0470924  32.0212358  11.2856540
  49.2038207  32.4700395  14.4063213  49.7739564  32.8987663  13.7680697
  49.7946319  32.1882980  15.1047399  51.2483012  29.0452066   8.2773015
  51.9507056  29.4973110   8.7446941  50.9163641  28.4035885   8.9052908
  49.6963374  27.6363823  22.6524224  49.0662034  28.3180103  22.8859621
  49.5899462  27.5246904  21.7077363  44.9908346  27.3035619  13.5790148
  44.2007400  27.5593147  13.1030259  45.4819594  28.1183956  13.6842189
  59.0072156  34.6440858  16.3295429  59.8289600  34.2421045  16.0478111
  59.0034559  34.5409092  17.2811545  46.9423092  27.6680198  10.5373625
  46.1454255  27.7798892  11.0557121  46.7148684  28.0066850   9.6714516
  52.7728759  34.1924901  18.4856140  52.8373192  34.6545308  19.3214312
  52.0639683  33.5622266  18.6138450  43.2746049  27.5566109  16.0105139
  43.5254088  28.4413119  16.2762715  43.8105598  27.3770711  15.2380231
  67.0978149  30.9879606  12.6780401  66.3441857  30.4187004  12.5224405
  67.2325690  30.9542271  13.6251035  52.4876777  35.8593009   8.3535120
  52.3522452  36.7044544   8.7819968  53.0286589  36.0612286   7.5901054
  48.9744117  21.9384588  25.0149475  48.5811062  21.3850787  25.6897120
  49.7910257  22.2495167  25.4055993  45.9406174  33.3768447   8.9263045
  46.4530695  34.1711697   9.0768610  46.5928887  32.6794737   8.8596647
  47.7501059  36.4934203  11.0085798  47.9267687  37.4152168  10.8206782
  48.5457893  36.1792622  11.4380178  51.8912078  23.3542468  22.6069732
  52.6321791  23.9549621  22.5274194  52.1230000  22.6120105  22.0487774
  47.0353416  28.5398835  20.8847962  46.9206931  27.6384092  21.1855060
  46.1797933  28.7862532  20.5332778  48.8732375  38.0112377  17.0096141
  49.4239800  37.8829440  16.2373135  48.0343850  38.3107266  16.6591033
  52.6699546  34.2763504  21.3540372  53.2027882  33.5151793  21.1239680
  52.1413627  33.9837156  22.0964526  55.8369241  19.3823570  16.8834014
  55.4933510  20.2725212  16.8073124  56.2048203  19.1925228  16.0203599
  43.9055091  31.7057101   9.7022616  44.7430313  32.1154109   9.4856323
  44.0833359  30.7656543   9.6722810  55.8019523  29.3732182   5.3906449
  55.2866147  30.1436786   5.6294836  55.5296832  28.6997318   6.0139510
  53.3866634  24.2181882  10.4491687  52.5308231  23.8288733  10.2697326
  53.7993586  24.2973843   9.5891473  54.9165781  21.7528226  14.8483247
  54.4130577  21.7158361  14.0351052  55.2096388  22.6620968  14.9079903
  51.1608667  21.8366955  13.8549429  52.0261664  21.6409764  13.4955318
  51.2286176  21.6077307  14.7818785  60.7753797  32.1264536   7.3259622
  59.9983240  31.7875696   6.8814784  61.4545278  32.1317159   6.6514587
  55.5905826  27.2459274   7.2166230  55.2855962  27.5605423   8.0676373
  56.5436269  27.3240694   7.2593563  54.0352258  33.4049497   8.8659184
  53.5073620  32.6702257   8.5532421  53.5339761  34.1824173   8.6199152
  59.0145104  31.5998517  13.9826230  58.3568779  32.2897779  14.0706359
  59.8185504  31.9894949  14.3260216  48.7670986  24.0669163  11.2265795
  49.3414738  23.8444345  10.4938988  49.3541968  24.1357858  11.9794397
  57.8250563  29.9542890  12.0330172  58.3382445  30.5872882  12.5351882
  58.4751787  29.3544086  11.6673532  51.0693654  20.9410412   9.9540865
  50.4158066  20.6259429   9.3297480  51.0274128  20.3186153  10.6800688
  55.0872937  39.9327214   4.7890843  54.4134636  40.2358911   5.3975801
  55.4738759  40.7356295   4.4396300  54.3031394  27.4292346  14.2788512
  53.3853955  27.6507293  14.1210200  54.7191538  27.5038656  13.4200220
  55.0866442  28.8283761   9.4091193  55.8338261  29.3405159   9.0998315
  55.3558031  28.5067814  10.2695586  53.3593092  31.3242302   6.3918147
  52.4504311  31.0401335   6.4890617  53.3888176  31.7441381   5.5321454
  58.5912359  34.9348892  10.1609315  58.1374686  34.0939801  10.2174505
  57.9606326  35.5710290  10.4984095  57.5345279  25.8640878  11.3909982
  56.7968036  25.3518264  11.7220225  57.7872052  25.4241259  10.5793259
  57.0345299  36.7725388  11.0959133  57.3268273  37.3330445  10.3771498
  57.5443919  37.0653949  11.8512292  57.6356906  18.6417130  11.9851751
  57.9415783  17.7814493  11.6977666  58.3609511  19.2334750  11.7850745
  43.9281262  29.0447816  10.3733349  43.7305662  28.4517177   9.6484416
  43.3727926  28.7400026  11.0909288  51.9077986  28.9370923  12.4927942
  51.9626596  27.9844759  12.4170419  51.0969188  29.0930362  12.9769241
  53.0569180  32.8651046   3.7306226  52.6188610  32.1486905   3.2711863
  53.7979621  33.0927161   3.1691317  49.8470346  27.5547982  10.2518321
  49.0338211  27.8542153  10.6583513  50.3429340  27.1603671  10.9692803
  51.9978924  37.5505739  12.1852586  51.9555103  37.7766586  11.2561118
  52.9141623  37.3169114  12.3338387  55.4444558  28.0189807  19.0833215
  55.7993945  28.2461280  19.9427681  56.0916689  28.3508184  18.4610470
  61.1742294  31.1408243   9.7882544  61.0360193  31.3309839   8.8603733
  60.8178513  31.9027626  10.2450595  49.3384421  25.1266338  15.8679556
  49.9783800  24.9855097  15.1702519  48.5061951  24.8400851  15.4918158
  61.2011674  33.2084770  14.7993816  61.6348181  33.1160059  15.6476870
  61.9143255  33.1842270  14.1613832  50.1144725  34.4268768  11.9814549
  50.9085323  33.9319089  11.7797124  49.4036417  33.8986632  11.6182254
  54.9339569  36.8086864  16.3326916  54.9876591  37.3777800  17.1004632
  54.0654350  36.9788749  15.9680953  46.4227488  28.5711850   8.0574301
  45.4925076  28.5096306   8.2744263  46.5184960  28.0487803   7.2610943
  46.3413037  25.0966663  10.6452543  46.6019854  26.0111996  10.5361703
  47.1630209  24.6291106  10.7949156  47.8137962  26.5104420  17.8151367
  48.4861016  26.3021782  17.1664016  46.9867749  26.3126506  17.3756600
  62.0627224  33.2508470  17.3326701  62.2563114  34.1554281  17.5785976
  61.9627842  32.7915890  18.1665286  53.7163534  23.1366361  19.8317028
  53.0691449  23.8356311  19.7381505  54.4864550  23.5702505  20.1993277
  53.8927669  30.9747126  17.8913848  54.8219729  31.1258286  17.7182815
  53.4718699  31.0631147  17.0362495  52.6916001  34.9997790  15.6612386
  52.5527086  34.6316575  16.5338324  51.9030597  35.5145430  15.4896343
  53.2864152  40.1006887   7.0037922  53.4615908  39.6294930   7.8183545
  52.5996941  40.7272653   7.2319183  54.2421216  34.3779393  13.0501223
  53.9071048  34.3380163  13.9458873  53.7425161  33.7124109  12.5771634
  48.2165460  29.7847023  18.5753805  48.0785258  29.0527262  19.1765344
  49.1270383  29.6955923  18.2937992  57.1780407  31.7235427   3.3238283
  56.5609578  30.9982256   3.2271336  56.7096896  32.4844788   2.9805357
  50.8447760  29.4966982  18.0637484  51.5547379  28.8560175  18.0224103
  50.8017068  29.7479877  18.9863665  49.5576694  26.4832200  19.8833124
  49.0214051  26.0322939  20.5354720  48.9693403  26.6178109  19.1403588
  47.8525238  43.2496250  13.7777782  48.0921836  43.8814774  14.4556801
  47.0094434  42.8984290  14.0643142  58.8351946  34.3973920  19.2158043
  57.9478725  34.0599841  19.3384442  59.4050497  33.6656951  19.4526809
  40.4881093  30.7298011  12.5401095  41.1752133  30.4159741  11.9522110
  40.3329222  31.6339376  12.2668346  45.2915816  25.6188208  16.9686118
  45.2074004  25.0113878  16.2336528  44.4698522  26.1097226  16.9695615
  52.3653100  39.0575372  16.1819286  52.2923271  39.8630344  16.6938591
  51.9230493  39.2567338  15.3567308  52.1542879  38.2947142   9.6922108
  51.3710401  38.8368822   9.7860332  52.8535624  38.8121122  10.0916349
  55.4639529  24.1041772  12.3356313  55.9608229  23.3511734  12.0157384
  54.6926511  24.1406088  11.7699523  63.3169287  29.8082137  13.9774605
  63.3059163  30.6906853  13.6068538  62.4486666  29.4553688  13.7829142
  56.5469310  32.8613459   9.9094737  55.6125589  32.9814921   9.7399441
  56.7245979  31.9585926   9.6454747  52.0474498  26.2459155  12.0627998
  51.6772286  25.6930195  12.7508903  52.5433591  25.6417288  11.5102998
  59.9341861  28.7030778  10.4444771  60.4002314  29.5358770  10.3705073
  60.3849362  28.2375760  11.1490029  49.8763697  36.7056650  19.1583016
  50.5773156  37.3393133  19.3112410  49.4058812  37.0471381  18.3978655
  58.0018093  35.0474599   7.4430923  58.2777936  34.9331194   8.3524797
  57.1322591  34.6492084   7.4043096  57.9058524  21.0711365  14.4835672
  56.9921604  21.3015592  14.6517879  58.3351626  21.1549809  15.3349705
  57.6764983  29.2601257  16.9835566  57.0236433  29.5077164  16.3288019
  58.0545363  28.4465395  16.6498043  54.6372157  39.2960950  11.0863736
  54.8194551  38.4782606  11.5491489  55.4605143  39.5128642  10.6488626
  54.9714322  38.2229135   8.3478785  55.5002088  37.7121590   7.7348947
  55.2342542  37.9071666   9.2124318  53.7252556  30.0021068  23.4701603
  53.0493193  29.9015197  24.1403978  54.5480190  29.8460282  23.9337600
  45.4731415  36.2393005  16.0914119  46.0584852  35.4936693  16.2242023
  45.2756253  36.5496961  16.9750782  48.3270070  39.2744252  11.1076561
  47.6580445  39.7590380  10.6240601  48.1882940  39.5213472  12.0219939
  40.0649069  28.8098605  14.8118562  40.1033169  28.2762195  15.6055680
  39.5589362  28.2833810  14.1929539  47.4439832  23.6563145  18.3081104
  47.5081158  24.5177976  17.8958502  47.3806952  23.0437147  17.5753462
  46.9192104  25.7286278  21.9554138  47.5464143  25.3463355  22.5691663
  46.0620023  25.5100480  22.3209831  47.2251894  25.6118704  13.8700042
  46.5038480  26.2254671  13.7307515  48.0145150  26.1476468  13.7916688
  57.6678634  37.0578991  16.3202452  56.7208970  36.9384342  16.2480778
  58.0161407  36.1701489  16.4028713  50.0278208  22.9473130  20.1440693
  50.5512609  23.1935427  20.9067003  49.8090541  23.7793165  19.7243831
  54.6725068  36.8531707  12.5206804  54.5250030  35.9248415  12.7014374
  55.4978561  36.8751798  12.0363879  48.5387312  25.5049774   8.3787296
  48.8783384  26.0335696   7.6565904  48.9859432  25.8430181   9.1545862
  58.2759189  37.6760266  13.6071676  59.2005737  37.4703127  13.4696128
  58.1074493  37.4276667  14.5161018  51.2330753  23.8886825  17.8290364
  50.8927573  23.0894638  18.2311044  50.5269759  24.1888536  17.2567197
  51.8847224  20.9736138  16.2817687  52.7073294  20.4996616  16.1596577
  52.1285288  21.7526621  16.7816373  54.6686582  24.7069545   7.5138921
  54.8850196  25.5894183   7.2127749  54.1880649  24.3155758   6.7844563
  49.4085803  27.6655258  14.0909666  49.2630384  27.9795561  14.9833947
  48.9311007  28.2840159  13.5380564  51.2682186  24.6557806  14.1390555
  51.2543755  23.7598900  13.8022853  51.9854614  24.6628470  14.7728841
  53.1208317  25.0895146  16.1843683  52.8626095  26.0112217  16.1828013
  52.5893357  24.6925581  16.8744147  58.0654506  38.1945934   8.9633768
  58.2391383  37.6292356   8.2107620  58.5583397  38.9946828   8.7813258
  43.8831465  30.2060603  17.0297327  43.3384933  30.9820411  17.1617601
  44.7610815  30.5531407  16.8716448  50.6719082  23.5372186   9.4078125
  50.7934993  22.6088833   9.6069013  50.3821124  23.5510872   8.4956441
  53.5410272  21.2227097  12.5444845  53.5631969  21.2866430  11.5896825
  53.9578331  20.3831606  12.7385351  63.9193897  30.9582356  10.5824068
  64.3625043  30.2089682  10.1843191  63.0420407  30.9492493  10.1997800
  59.0529678  37.5112698   6.0630666  59.7480583  38.1319391   6.2817981
  59.3952828  36.6608049   6.3383044  44.6697487  29.3330499  19.9227484
  43.9279223  29.4813134  20.5092114  44.3490232  29.5938764  19.0594233
  60.9521101  34.9612403   7.5917997  61.4772425  35.2999676   6.8667317
  60.8643454  34.0259419   7.4081132  52.6361762  41.0284387  11.9513250
  52.1966752  40.5360765  12.6446107  53.3869879  40.4857354  11.7105325
  45.1154101  37.2195928  11.9537878  45.9412121  36.9199699  11.5736522
  44.7648153  36.4503550  12.4027667  50.0835634  36.5722396  14.0235552
  49.4615643  35.9093101  13.7237780  50.7540501  36.5983528  13.3409200
  43.3162706  35.1382254  12.9126812  42.4794614  34.7104428  12.7310813
  43.2886351  35.3314697  13.8497603  50.1560162  25.0504184  23.6168058
  50.2048317  25.9266307  23.2345827  50.6982676  24.5081577  23.0439701
  49.6449141  35.1226319   7.4994012  49.7937261  35.8061784   6.8460685
  50.4515584  35.1031409   8.0143468  58.0516645  28.4268701  21.5261230
  58.9526507  28.2875166  21.2345228  58.1264619  28.5923156  22.4659408
  52.3859450  25.8035556  20.3714417  51.5162759  26.0969122  20.0997005
  52.6218930  26.3876001  21.0921680  63.4626761  32.4287595  12.9746515
  64.2973653  32.8677399  13.1384076  63.5985890  31.9526248  12.1554761
  60.5118267  29.9867330  18.9224003  60.9872389  30.1794976  18.1142854
  59.5883833  30.0426515  18.6767387  47.4001774  31.1491497   8.5055081
  47.1547816  30.2453827   8.7035291  47.5697689  31.1508647   7.5634559
  55.0898484  22.0215173  17.8879837  55.6080428  22.7576200  17.5626325
  54.7353617  22.3279166  18.7226596  53.1444547  37.6174450   4.9705760
  52.5718514  38.2364637   4.5176232  53.7177340  38.1673811   5.5045682
  59.2119936  26.8633090  17.1552309  60.1637359  26.9631187  17.1764533
  59.0423387  26.0711358  17.6650393  57.2334316  23.9488673  17.3411710
  56.6384248  24.2293686  16.6458198  56.9484013  24.4382574  18.1128451
  56.3641806  37.9011600   6.1014342  57.2972479  37.8357161   6.3047218
  56.2765019  38.7367867   5.6428875  58.9929823  37.2177470   3.0618290
  58.9143455  36.8837334   3.9554048  59.8139490  37.7099238   3.0609762
  61.6908014  30.0839209  16.2694608  61.6584334  29.1455210  16.4554292
  62.3008638  30.1623246  15.5360433  61.8402503  26.8750253  16.3152891
  61.3241551  26.0908709  16.1282820  62.7242451  26.5468969  16.4799411
  59.5013230  20.6191268  12.2748704  59.3038051  20.3106357  13.1592036
  60.1112935  21.3452907  12.4046634  67.5084564  31.1455216  15.4100645
  68.2387952  30.8840504  15.9708348  66.8991509  30.4083938  15.4502713
  65.5899861  29.2863079  16.0075096  64.8633025  29.1519044  15.3991588
  65.1747148  29.5939907  16.8131814  53.4130038  33.0053008  23.7722469
  54.3333047  33.1831607  23.9662516  53.3779621  32.0609054  23.6202169
  42.6312203  28.1991602  12.6975744  42.3114987  27.3456910  12.4050118
  42.0845631  28.4140180  13.4533711  46.4092110  30.9154043  16.4145250
  46.6278120  31.8471151  16.4333284  46.8217884  30.5562018  17.2000054
  53.3296328  21.4222128   8.4020939  52.5197056  21.0769213   8.7776185
  54.0180745  21.1129672   8.9908550  55.2586876  20.5000175  10.0245235
  55.8117915  20.9195629  10.6835259  55.4956963  19.5735923  10.0668191
  51.2819975  26.4887249  25.8047999  51.1816702  27.4381606  25.7360090
  51.0641517  26.1605488  24.9324069  42.5000463  31.8194514  14.6668866
  41.8063934  31.4048466  14.1538820  43.2473454  31.8615050  14.0702284
  58.6365683  22.6100700   9.5323900  58.0564352  23.2685504   9.1501952
  58.3701616  21.7878045   9.1211317  57.0869250  22.0105758  11.7345220
  57.5869028  22.1222293  10.9259539  57.7304858  21.7066811  12.3746029
  51.1451245  29.9184388  24.6213061  50.6618327  30.7184748  24.8276950
  51.2312185  29.9292333  23.6680505  44.4137205  31.7512767  12.5434880
  44.3907893  31.8500455  11.5916764  44.7237842  32.5977918  12.8652047
  47.0724583  33.8088922  16.6581495  48.0267837  33.7772865  16.5911426
  46.8737107  33.3479546  17.4731721  47.6623965  32.3790038  19.2252292
  48.4816854  32.8734117  19.2487130  47.9360773  31.4622007  19.1969860
  57.4190561  24.7700791   8.5880248  56.5316416  25.0550441   8.3700443
  57.8344550  24.6094554   7.7407525  60.7705097  24.7947312  12.3034587
  61.5465488  25.2843764  12.5759204  60.0453232  25.2205366  12.7606457
  63.2077656  25.5074931  13.3608528  63.8022147  25.2670667  12.6501836
  63.2804240  24.7882062  13.9882064  45.4274812  39.3508542  13.6751693
  45.2929280  38.5908943  13.1089691  45.0106874  40.0749442  13.2080482
  56.5633775  34.5345465   2.6828268  57.2669625  34.7395468   3.2985924
  55.8396424  35.1022227   2.9477352  57.3931585  30.2855327   8.8030538
  57.3366786  30.7423878   7.9638171  57.9459928  29.5246011   8.6253381
  61.2036391  26.0745059   9.6280658  60.9473325  25.6741694  10.4588865
  60.5789259  26.7888853   9.5030797  65.5148729  28.8141132  12.1351949
  64.9548287  28.8834321  12.9083511  64.9092232  28.6382116  11.4151445
  48.5843938  40.2477859  13.8870135  48.4676322  41.1923291  13.7848826
  47.7636384  39.9451421  14.2755935  58.4720472  34.9727995   4.7326728
  59.3066076  34.5409193   4.5504203  58.3104815  34.8010008   5.6603623
  58.1266364  31.4760108   6.0983067  58.0715168  31.3104379   5.1571511
  57.5012420  32.1836141   6.2545257  42.9158879  26.7128172  19.9244490
  43.5617743  26.2027126  20.4131715  42.7076030  27.4496854  20.4987915
  49.6098452  40.9006121  17.1026064  50.5125698  40.9329731  17.4192559
  49.3835822  39.9706572  17.1172400  51.3652054  39.6537107  13.7636142
  50.4147685  39.6538969  13.6500515  51.6684540  38.9069842  13.2472177
  55.2514609  17.5710994   9.9314323  54.4847005  17.0169480  10.0771005
  55.6625314  17.6432862  10.7928474  47.2556370  23.8595789  24.0219504
  48.1187832  23.5032594  24.2322828  46.6821781  23.5209684  24.7094908
  65.3480828  50.9631518   6.0654785  64.6968808  51.5485598   5.6788799
  66.1425191  51.4937713   6.1249823  59.2736455  48.0520655   6.4641920
  60.0467331  47.5049642   6.3254795  59.6261854  48.9164904   6.6756381
  61.6102733  44.2113321   4.0960370  61.8628254  43.6894843   3.3343833
  60.6727292  44.0479467   4.1987053  66.6546016  43.2149100  11.9035113
  67.4409105  42.7968523  11.5525530  66.9184720  44.1195192  12.0716761
  66.8256093  48.6521950   6.6023770  66.1901926  48.7256576   7.3144674
  66.4953500  49.2415549   5.9242849  61.3299022  46.1141427   6.2984745
  61.2135280  45.4386331   6.9665829  61.4401282  45.6273801   5.4816898
  63.6730563  45.5751574  10.0031434  63.3088770  45.0482195  10.7144355
  64.5297679  45.1850043   9.8297919  69.5779863  36.8645907  17.2662700
  69.2463188  37.7341318  17.0423915  68.9825477  36.5482191  17.9456730
  63.3136050  40.6041474   4.9992782  63.4810452  41.4721710   5.3663253
  63.1233219  40.7668756   4.0754072  63.2925270  43.0599132   5.9839449
  63.1724896  43.5056182   6.8224929  62.5977859  43.4084449   5.4252987
  61.0532163  55.8302773   9.6329580  60.9756192  56.7810598   9.7118061
  60.4493806  55.4848646  10.2904507  71.3370173  39.7857432  16.1233924
  70.6944553  40.0789965  15.4773718  70.8325101  39.6710352  16.9287121
  68.9910337  43.5320605   6.8119783  69.9028193  43.7647991   6.6367481
  68.4819984  44.1157649   6.2494862  67.5979919  48.5146423  14.2033365
  66.9688781  48.6792137  13.5009432  67.2105581  48.9288033  14.9744329
  71.4769151  49.4500861  11.5577728  70.7920189  49.8299762  11.0074762
  71.5613000  50.0596188  12.2909676  62.0876767  44.3743984   8.2773015
  62.7900810  44.8265027   8.7446941  61.7557395  43.7327802   8.9052908
  77.9371903  46.3171524  12.6780401  77.1835612  45.7478922  12.5224405
  78.0719445  46.2834188  13.6251035  63.3270531  51.1884926   8.3535120
  63.1916206  52.0336462   8.7819968  63.8680344  51.3904204   7.5901054
  56.7799929  48.7060364   8.9263045  57.2924449  49.5003615   9.0768610
  57.4322642  48.0086655   8.8596647  58.5894814  51.8226121  11.0085798
  58.7661442  52.7444085  10.8206782  59.3851647  51.5084540  11.4380178
  66.6762995  34.7115488  16.8834014  66.3327264  35.6017130  16.8073124
  67.0441958  34.5217146  16.0203599  54.7448846  47.0349019   9.7022616
  55.5824068  47.4446027   9.4856323  54.9227113  46.0948461   9.6722810
  66.6413278  44.7024099   5.3906449  66.1259901  45.4728704   5.6294836
  66.3690586  44.0289235   6.0139510  64.2260389  39.5473800  10.4491687
  63.3701985  39.1580650  10.2697326  64.6387341  39.6265761   9.5891473
  65.7559535  37.0820143  14.8483247  65.2524331  37.0450278  14.0351052
  66.0490142  37.9912886  14.9079903  71.6147552  47.4556454   7.3259622
  70.8376995  47.1167613   6.8814784  72.2939033  47.4609077   6.6514587
  66.4299581  42.5751191   7.2166230  66.1249717  42.8897341   8.0676373
  67.3830023  42.6532611   7.2593563  64.8746013  48.7341415   8.8659184
  64.3467374  47.9994174   8.5532421  64.3733516  49.5116091   8.6199152
  59.6064740  39.3961081  11.2265795  60.1808492  39.1736262  10.4938988
  60.1935723  39.4649775  11.9794397  68.6644318  45.2834808  12.0330172
  69.1776199  45.9164800  12.5351882  69.3145541  44.6836003  11.6673532
  59.9334327  41.4265542   5.2461681  59.0971640  41.7640228   5.5670955
  59.7939097  41.2914522   4.3088818  61.9087408  36.2702330   9.9540865
  61.2551820  35.9551347   9.3297480  61.8667882  35.6478070  10.6800688
  63.0198613  46.5521625   1.8694157  62.1125675  46.3210878   2.0685306
  63.5169645  45.7559244   2.0568138  65.9266692  55.2619132   4.7890843
  65.2528391  55.5650829   5.3975801  66.3132514  56.0648212   4.4396300
  65.9260196  44.1575679   9.4091193  66.6732015  44.6697076   9.0998315
  66.1951786  43.8359732  10.2695586  64.1986846  46.6534220   6.3918147
  63.2898066  46.3693253   6.4890617  64.2281930  47.0733298   5.5321454
  69.4306114  50.2640809  10.1609315  68.9768441  49.4231719  10.2174505
  68.8000081  50.9002208  10.4984095  68.3739033  41.1932795  11.3909982
  67.6361790  40.6810182  11.7220225  68.6265807  40.7533177  10.5793259
  67.8739053  52.1017306  11.0959133  68.1662027  52.6622363  10.3771498
  68.3837674  52.3945867  11.8512292  68.4750661  33.9709047  11.9851751
  68.7809537  33.1106411  11.6977666  69.2003266  34.5626668  11.7850745
  63.8962934  48.1942963   3.7306226  63.4582364  47.4778822   3.2711863
  64.6373375  48.4219078   3.1691317  60.6864100  42.8839900  10.2518321
  59.8731966  43.1834071  10.6583513  61.1823095  42.4895589  10.9692803
  72.0136049  46.4700160   9.7882544  71.8753948  46.6601756   8.8603733
  71.6572268  47.2319543  10.2450595  57.2621242  43.9003768   8.0574301
  56.3318831  43.8388223   8.2744263  57.3578714  43.3779721   7.2610943
  57.1806792  40.4258581  10.6452543  57.4413609  41.3403914  10.5361703
  58.0023964  39.9583023  10.7949156  64.1257907  55.4298805   7.0037922
  64.3009663  54.9586848   7.8183545  63.4390695  56.0564571   7.2319183
  65.0814970  49.7071311  13.0501223  64.7464803  49.6672081  13.9458873
  64.5818916  49.0416027  12.5771634  68.0174162  47.0527345   3.3238283
  67.4003332  46.3274173   3.2271336  67.5490650  47.8136705   2.9805357
  58.6918992  58.5788167  13.7777782  58.9315590  59.2106691  14.4556801
  57.8488189  58.2276207  14.0643142  59.8072708  41.2712769   2.4459587
  58.9302174  41.1501570   2.0821834  60.2830461  40.4798848   2.1938476
  51.3274848  46.0589929  12.5401095  52.0145888  45.7451659  11.9522110
  51.1722977  46.9631294  12.2668346  62.9936634  53.6239060   9.6922108
  62.2104156  54.1660740   9.7860332  63.6929379  54.1413039  10.0916349
  66.3033284  39.4333689  12.3356313  66.8001983  38.6803652  12.0157384
  65.5320265  39.4698006  11.7699523  67.3863065  48.1905376   9.9094737
  66.4519343  48.3106839   9.7399441  67.5639733  47.2877843   9.6454747
  62.8868253  41.5751072  12.0627998  62.5166040  41.0222113  12.7508903
  63.3827345  40.9709206  11.5102998  70.7735616  44.0322696  10.4444771
  71.2396068  44.8650687  10.3705073  71.2243116  43.5667677  11.1490029
  68.8411847  50.3766517   7.4430923  69.1171691  50.2623112   8.3524797
  67.9716346  49.9784002   7.4043096  68.7452279  36.4003283  14.4835672
  67.8315358  36.6307510  14.6517879  69.1745380  36.4841727  15.3349705
  65.4765911  54.6252868  11.0863736  65.6588306  53.8074524  11.5491489
  66.2998897  54.8420560  10.6488626  65.8108077  53.5521053   8.3478785
  66.3395843  53.0413508   7.7348947  66.0736296  53.2363583   9.2124318
  54.5351402  42.8654625   7.8872493  54.8304843  41.9565303   7.8339547
  53.6339437  42.8442364   7.5653495  56.2639243  40.5468722   8.0111818
  55.9351949  39.6666101   7.8286924  56.6178614  40.4916391   8.8988207
  65.5118822  52.1823625  12.5206804  65.3643784  51.2540332  12.7014374
  66.3372316  52.2043716  12.0363879  59.3781066  40.8341692   8.3787296
  59.7177139  41.3627613   7.6565904  59.8253187  41.1722098   9.1545862
  69.1152944  53.0052184  13.6071676  70.0399491  52.7995045  13.4696128
  68.9468247  52.7568585  14.5161018  61.3649213  39.3316314   6.5780589
  62.0857576  39.7097566   6.0744305  60.7414518  40.0505190   6.6815567
  65.5080336  40.0361463   7.5138921  65.7243951  40.9186101   7.2127749
  65.0274403  39.6447676   6.7844563  68.9048260  53.5237851   8.9633768
  69.0785138  52.9584274   8.2107620  69.3977151  54.3238746   8.7813258
  61.5112837  38.8664104   9.4078125  61.6328748  37.9380750   9.6069013
  61.2214879  38.8802790   8.4956441  64.3804027  36.5519015  12.5444845
  64.4025724  36.6158348  11.5896825  64.7972086  35.7123523  12.7385351
  74.7587651  46.2874274  10.5824068  75.2018797  45.5381599  10.1843191
  73.8814162  46.2784410  10.1997800  69.8923433  52.8404616   6.0630666
  70.5874337  53.4611308   6.2817981  70.2346583  51.9899967   6.3383044
  71.7914856  50.2904321   7.5917997  72.3166180  50.6291594   6.8667317
  71.7037208  49.3551336   7.4081132  63.4755516  56.3576304  11.9513250
  63.0360507  55.8652683  12.6446107  64.2263633  55.8149272  11.7105325
  55.9547855  52.5487845  11.9537878  56.7805875  52.2491617  11.5736522
  55.6041907  51.7795468  12.4027667  71.4808762  50.9237225  22.8969195
  70.6904305  50.9061364  22.3573694  71.2442116  51.4625518  23.6518232
  60.4842895  50.4518237   7.4994012  60.6331016  51.1353701   6.8460685
  61.2909339  50.4323327   8.0143468  74.3020516  47.7579512  12.9746515
  75.1367407  48.1969317  13.1384076  74.4379645  47.2818166  12.1554761
  58.2395528  46.4783414   8.5055081  57.9941570  45.5745744   8.7035291
  58.4091443  46.4800565   7.5634559  57.5091176  42.2111772   6.0041243
  56.8160421  42.2856127   5.3481279  57.2642928  41.4472116   6.5262760
  66.1804833  33.7707373  13.4080734  66.4606586  33.1030562  14.0341160
  66.9655439  33.9636469  12.8955397  63.9838301  52.9466367   4.9705760
  63.4112268  53.5656554   4.5176232  64.5571095  53.4965729   5.5045682
  67.2035561  53.2303517   6.1014342  68.1366234  53.1649079   6.3047218
  67.1158774  54.0659784   5.6428875  69.8323577  52.5469388   3.0618290
  69.7537209  52.2129251   3.9554048  70.6533244  53.0391156   3.0609762
  64.3685100  44.2827180   2.3121812  65.3144204  44.1533388   2.3810230
  63.9899344  43.5441842   2.7891240  70.3406984  35.9483186  12.2748704
  70.1431805  35.6398274  13.1592036  70.9506690  36.6744825  12.4046634
  78.3478318  46.4747134  15.4100645  79.0781707  46.2132422  15.9708348
  77.7385264  45.7375856  15.4502713  76.4293616  44.6154996  16.0075096
  75.7026779  44.4810961  15.3991588  76.0140902  44.9231825  16.8131814
  62.5528017  42.2077156   2.2476698  61.6459472  41.9110269   2.3239411
  62.8303998  41.9106975   1.3810984  64.1690082  36.7514046   8.4020939
  63.3590811  36.4061131   8.7776185  64.8574499  36.4421590   8.9908550
  66.0980631  35.8292093  10.0245235  66.6511669  36.2487546  10.6835259
  66.3350717  34.9027841  10.0668191  61.3226801  39.0664092   2.3888677
  62.1845965  39.3918990   2.6484494  61.5077145  38.2795588   1.8761743
  69.4759438  37.9392618   9.5323900  68.8958107  38.5977422   9.1501952
  69.2095370  37.1169963   9.1211317  67.9263004  37.3397676  11.7345220
  68.4262782  37.4514210  10.9259539  68.5698612  37.0358729  12.3746029
  68.2584316  40.0992708   8.5880248  67.3710171  40.3842359   8.3700443
  68.6738305  39.9386472   7.7407525  71.6098852  40.1239229  12.3034587
  72.3859242  40.6135682  12.5759204  70.8846986  40.5497284  12.7606457
  74.0471411  40.8366849  13.3608528  74.6415901  40.5962585  12.6501836
  74.1197994  40.1173979  13.9882064  67.4027529  49.8637383   2.6828268
  68.1063379  50.0687386   3.2985924  66.6790178  50.4314145   2.9477352
  68.2325340  45.6147244   8.8030538  68.1760541  46.0715796   7.9638171
  68.7853682  44.8537929   8.6253381  72.0430145  41.4036976   9.6280658
  71.7867080  41.0033612  10.4588865  71.4183013  42.1180770   9.5030797
  76.3542483  44.1433050  12.1351949  75.7942041  44.2126239  12.9083511
  75.7485987  43.9674034  11.4151445  69.3114227  50.3019912   4.7326728
  70.1459831  49.8701111   4.5504203  69.1498570  50.1301926   5.6603623
  68.9660119  46.8052026   6.0983067  68.9108923  46.6396297   5.1571511
  68.3406174  47.5128059   6.2545257  62.2756244  36.3060135   5.6768386
  62.2634914  37.2501975   5.8336657  63.1679666  36.1230280   5.3827847
  66.0908364  32.9002911   9.9314323  65.3240760  32.3461398  10.0771005
  66.5019069  32.9724780  10.7928474  77.9398502  60.8189563  14.8281905
  78.5776912  60.6996311  14.1245245  77.8219345  61.7670407  14.8869857
  74.7488208  60.7716992  14.7643429  74.4106720  60.6558056  13.8763964
  75.6177976  60.3708157  14.7444436  70.6075024  62.6252468  10.7540320
  70.0439889  62.5342405   9.9856608  70.4927419  61.8052372  11.2342813
  75.2307991  61.9251843  20.7229635  75.2196632  61.5304642  19.8510139
  75.3928630  61.1917916  21.3163406  68.1539456  64.1203660  13.5924541
  68.9460748  63.7794484  13.1770840  68.3936106  64.2298635  14.5126694
  76.1874582  66.2923436   6.0654785  75.5362562  66.8777516   5.6788799
  76.9818945  66.8229631   6.1249823  70.1130210  63.3812573   6.4641920
  70.8861086  62.8341560   6.3254795  70.4655608  64.2456822   6.6756381
  71.9515252  64.7088955  19.6708819  71.6605118  65.6134586  19.5555485
  72.5872237  64.7505483  20.3852889  72.8771459  62.0865804  16.2610179
  73.4735031  61.8621826  15.5467142  72.9346431  61.3450549  16.8635626
  72.4496487  59.5405239   4.0960370  72.7022008  59.0186760   3.3343833
  71.5121047  59.3771384   4.1987053  77.4939770  58.5441017  11.9035113
  78.2802859  58.1260440  11.5525530  77.7578475  59.4487110  12.0716761
  77.6649848  63.9813868   6.6023770  77.0295681  64.0548494   7.3144674
  77.3347254  64.5707466   5.9242849  82.8948197  58.4816251  12.8068091
  83.6273369  57.9115467  13.0405921  82.1387553  58.0937851  13.2474597
  72.1692776  61.4433345   6.2984745  72.0529034  60.7678248   6.9665829
  72.2795036  60.9565719   5.4816898  74.5124317  60.9043492  10.0031434
  74.1482524  60.3774113  10.7144355  75.3691433  60.5141961   9.8297919
  80.4173618  52.1937825  17.2662700  80.0856942  53.0633236  17.0423915
  79.8219231  51.8774109  17.9456730  74.1529804  55.9333392   4.9992782
  74.3204206  56.8013628   5.3663253  73.9626973  56.0960673   4.0754072
  76.9105137  64.3950371  16.6658613  76.6105860  65.2975409  16.5574420
  76.5656197  64.1282554  17.5179766  70.3617619  60.8464167  12.6995317
  69.4368115  60.7140382  12.9073009  70.6102032  61.6258387  13.1965259
  80.3102281  56.9132911  14.3456050  79.4019158  56.8448319  14.0514811
  80.2589877  57.3904856  15.1737875  74.1319025  58.3891049   5.9839449
  74.0118650  58.8348100   6.8224929  73.4371613  58.7376367   5.4252987
  67.7226430  60.4897441  13.5339106  67.8518811  60.7431920  14.4478518
  67.0423881  61.0825149  13.2143761  71.8925917  71.1594691   9.6329580
  71.8149947  72.1102516   9.7118061  71.2887561  70.8140563  10.2904507
  74.3843147  58.3322556  22.2890947  73.6076481  58.8916477  22.2793812
  75.0233710  58.8179339  22.8105817  82.1763927  55.1149349  16.1233924
  81.5338308  55.4081882  15.4773718  81.6718856  55.0002270  16.9287121
  79.8304091  58.8612522   6.8119783  80.7421947  59.0939909   6.6367481
  79.3213738  59.4449567   6.2494862  72.6389519  61.1408010  21.8508914
  73.3804203  61.6793054  21.5743738  71.9326505  61.7674299  22.0080466
  78.1144859  63.2837150  20.4481076  78.5228215  62.8419561  19.7035708
  77.3922120  62.7089778  20.7015269  74.4675929  58.2209757  17.8214633
  75.3137124  58.6449171  17.9649282  74.4074566  57.5643381  18.5153196
  78.4373673  63.8438341  14.2033365  77.8082536  64.0084055  13.5009432
  78.0499335  64.2579950  14.9744329  82.3162905  64.7792779  11.5577728
  81.6313943  65.1591680  11.0074762  82.4006755  65.3888105  12.2909676
  77.6175374  55.8814125  19.4795806  77.3736306  56.6356186  18.9430082
  77.8935305  56.2599473  20.3143053  79.5713837  62.4252738  18.1573072
  79.7830732  63.0684498  17.4807453  79.5243585  61.5915054  17.6895002
  77.1740066  55.0370558  15.0609644  76.3124545  55.3351812  15.3526382
  77.2002501  55.2540957  14.1290677  73.9901635  63.5812749  11.4683450
  74.4539981  63.8600452  10.6788072  73.7258433  62.6796194  11.2856540
  70.8825716  63.1284230  14.4063213  71.4527073  63.5571499  13.7680697
  71.4733828  62.8466815  15.1047399  72.9270521  59.7035901   8.2773015
  73.6294565  60.1556945   8.7446941  72.5951150  59.0619720   8.9052908
  66.6695855  57.9619454  13.5790148  65.8794909  58.2176982  13.1030259
  67.1607103  58.7767792  13.6842189  80.6859665  65.3024693  16.3295429
  81.5077109  64.9004880  16.0478111  80.6822068  65.1992927  17.2811545
  68.6210601  58.3264033  10.5373625  67.8241764  58.4382727  11.0557121
  68.3936193  58.6650685   9.6714516  74.4516268  64.8508736  18.4856140
  74.5160701  65.3129144  19.3214312  73.7427192  64.2206101  18.6138450
  88.7765658  61.6463442  12.6780401  88.0229366  61.0770840  12.5224405
  88.9113199  61.6126106  13.6251035  74.1664286  66.5176844   8.3535120
  74.0309961  67.3628380   8.7819968  74.7074098  66.7196122   7.5901054
  67.6193683  64.0352282   8.9263045  68.1318204  64.8295532   9.0768610
  68.2716396  63.3378572   8.8596647  69.4288568  67.1518038  11.0085798
  69.6055196  68.0736003  10.8206782  70.2245402  66.8376457  11.4380178
  73.5699587  54.0126303  22.6069732  74.3109300  54.6133456  22.5274194
  73.8017509  53.2703941  22.0487774  75.7932762  67.1400410  22.4835462
  75.3496617  66.3536789  22.1656367  76.4549976  67.3279561  21.8179353
  70.5519884  68.6696212  17.0096141  71.1027309  68.5413275  16.2373135
  69.7131359  68.9691101  16.6591033  77.8914000  67.4203210  20.5116863
  77.8732476  68.2412091  20.0197133  78.8133920  67.2957286  20.7367005
  74.3487055  64.9347340  21.3540372  74.8815391  64.1735628  21.1239680
  73.8201136  64.6420992  22.0964526  77.5156750  50.0407406  16.8834014
  77.1721019  50.9309047  16.8073124  77.8835712  49.8509063  16.0203599
  65.5842600  62.3640936   9.7022616  66.4217822  62.7737945   9.4856323
  65.7620868  61.4240378   9.6722810  77.4807032  60.0316017   5.3906449
  76.9653656  60.8020622   5.6294836  77.2084341  59.3581153   6.0139510
  75.0654143  54.8765718  10.4491687  74.2095740  54.4872568  10.2697326
  75.4781095  54.9557678   9.5891473  76.5953290  52.4112061  14.8483247
  76.0918086  52.3742196  14.0351052  76.8883897  53.3204804  14.9079903
  72.8396176  52.4950791  13.8549429  73.7049173  52.2993599  13.4955318
  72.9073685  52.2661142  14.7818785  82.4541306  62.7848372   7.3259622
  81.6770749  62.4459531   6.8814784  83.1332787  62.7900995   6.6514587
  77.2693335  57.9043109   7.2166230  76.9643471  58.2189258   8.0676373
  78.2223778  57.9824529   7.2593563  75.7139767  64.0633332   8.8659184
  75.1861129  63.3286092   8.5532421  75.2127270  64.8408009   8.6199152
  80.6932613  62.2582353  13.9826230  80.0356288  62.9481614  14.0706359
  81.4973012  62.6478785  14.3260216  70.4458495  54.7252999  11.2265795
  71.0202247  54.5028180  10.4938988  71.0329477  54.7941693  11.9794397
  79.5038072  60.6126725  12.0330172  80.0169954  61.2456717  12.5351882
  80.1539296  60.0127921  11.6673532  70.7728082  56.7557460   5.2461681
  69.9365394  57.0932146   5.5670955  70.6332852  56.6206439   4.3088818
  72.7481163  51.5994248   9.9540865  72.0945575  51.2843265   9.3297480
  72.7061637  50.9769988  10.6800688  75.9818903  58.0876181  14.2788512
  75.0641464  58.3091128  14.1210200  76.3979047  58.1622492  13.4200220
  76.7653951  59.4867597   9.4091193  77.5125770  59.9988994   9.0998315
  77.0345540  59.1651649  10.2695586  75.0380601  61.9826137   6.3918147
  74.1291820  61.6985170   6.4890617  75.0675685  62.4025216   5.5321454
  80.2699868  65.5932727  10.1609315  79.8162195  64.7523637  10.2174505
  79.6393835  66.2294125  10.4984095  79.2132788  56.5224713  11.3909982
  78.4755545  56.0102099  11.7220225  79.4659561  56.0825095  10.5793259
  78.7132808  67.4309224  11.0959133  79.0055782  67.9914281  10.3771498
  79.2231428  67.7237785  11.8512292  79.3144415  49.3000965  11.9851751
  79.6203292  48.4398328  11.6977666  80.0397020  49.8918585  11.7850745
  65.6068771  59.7031652  10.3733349  65.4093171  59.1101012   9.6484416
  65.0515435  59.3983862  11.0909288  73.5865495  59.5954758  12.4927942
  73.6414105  58.6428594  12.4170419  72.7756697  59.7514197  12.9769241
  71.5257855  58.2131818  10.2518321  70.7125720  58.5125988  10.6583513
  72.0216849  57.8187507  10.9692803  73.6766433  68.2089575  12.1852586
  73.6342612  68.4350421  11.2561118  74.5929132  67.9752949  12.3338387
  77.1232067  58.6773642  19.0833215  77.4781454  58.9045115  19.9427681
  77.7704198  59.0092019  18.4610470  82.8529803  61.7992078   9.7882544
  82.7147702  61.9893674   8.8603733  82.4966022  62.5611461  10.2450595
  71.0171930  55.7850173  15.8679556  71.6571309  55.6438932  15.1702519
  70.1849460  55.4984687  15.4918158  82.8799183  63.8668605  14.7993816
  83.3135690  63.7743894  15.6476870  83.5930764  63.8426106  14.1613832
  71.7932234  65.0852604  11.9814549  72.5872832  64.5902924  11.7797124
  71.0823926  64.5570467  11.6182254  76.6127078  67.4670699  16.3326916
  76.6664100  68.0361636  17.1004632  75.7441859  67.6372584  15.9680953
  68.1014997  59.2295685   8.0574301  67.1712585  59.1680141   8.2744263
  68.1972469  58.7071638   7.2610943  68.0200546  55.7550498  10.6452543
  68.2807363  56.6695832  10.5361703  68.8417718  55.2874941  10.7949156
  83.7414733  63.9092306  17.3326701  83.9350623  64.8138116  17.5785976
  83.6415351  63.4499725  18.1665286  75.3951043  53.7950196  19.8317028
  74.7478958  54.4940146  19.7381505  76.1652059  54.2286340  20.1993277
  78.8029841  64.0599049  22.9067582  78.6515348  63.8309600  21.9897665
  78.7934521  65.0169650  22.9198927  75.5715178  61.6330961  17.8913848
  76.5007238  61.7842121  17.7182815  75.1506208  61.7214982  17.0362495
  74.3703510  65.6581626  15.6612386  74.2314595  65.2900410  16.5338324
  73.5818106  66.1729265  15.4896343  75.9208725  65.0363228  13.0501223
  75.5858557  64.9963998  13.9458873  75.4212670  64.3707944  12.5771634
  80.5122048  67.0918171  20.9844063  80.4534594  66.4077391  20.3174646
  80.9141566  67.8337161  20.5324689  69.5312747  73.9080085  13.7777782
  69.7709345  74.5398609  14.4556801  68.6881943  73.5568125  14.0643142
  70.6466462  56.6004687   2.4459587  69.7695929  56.4793488   2.0821834
  71.1224215  55.8090765   2.1938476  80.5139455  65.0557755  19.2158043
  79.6266234  64.7183677  19.3384442  81.0838006  64.3240786  19.4526809
  62.1668602  61.3881847  12.5401095  62.8539642  61.0743577  11.9522110
  62.0116731  62.2923211  12.2668346  74.0440609  69.7159207  16.1819286
  73.9710780  70.5214179  16.6938591  73.6018002  69.9151173  15.3567308
  73.8330388  68.9530977   9.6922108  73.0497910  69.4952658   9.7860332
  74.5323133  69.4704957  10.0916349  77.1427038  54.7625607  12.3356313
  77.6395738  54.0095569  12.0157384  76.3714020  54.7989924  11.7699523
  84.9956796  60.4665972  13.9774605  84.9846672  61.3490688  13.6068538
  84.1274175  60.1137523  13.7829142  78.2256819  63.5197294   9.9094737
  77.2913098  63.6398757   9.7399441  78.4033488  62.6169761   9.6454747
  73.7262007  56.9042990  12.0627998  73.3559795  56.3514030  12.7508903
  74.2221100  56.3001123  11.5102998  81.6129370  59.3614613  10.4444771
  82.0789823  60.1942605  10.3705073  82.0636871  58.8959595  11.1490029
  71.5551206  67.3640485  19.1583016  72.2560665  67.9976968  19.3112410
  71.0846321  67.7055216  18.3978655  79.6805602  65.7058435   7.4430923
  79.9565445  65.5915029   8.3524797  78.8110100  65.3075920   7.4043096
  79.5846033  51.7295200  14.4835672  78.6709113  51.9599427  14.6517879
  80.0139135  51.8133644  15.3349705  79.3552492  59.9185092  16.9835566
  78.7023942  60.1661000  16.3288019  79.7332872  59.1049231  16.6498043
  76.3159666  69.9544786  11.0863736  76.4982060  69.1366441  11.5491489
  77.1392652  70.1712478  10.6488626  76.6501831  68.8812971   8.3478785
  77.1789597  68.3705425   7.7348947  76.9130051  68.5655501   9.2124318
  75.4040065  60.6604903  23.4701603  74.7280702  60.5599033  24.1403978
  76.2267699  60.5044117  23.9337600  67.1518924  66.8976840  16.0914119
  67.7372361  66.1520528  16.2242023  66.9543762  67.2080797  16.9750782
  70.0057579  69.9328087  11.1076561  69.3367954  70.4174215  10.6240601
  69.8670449  70.1797308  12.0219939  61.7436578  59.4682440  14.8118562
  61.7820678  58.9346031  15.6055680  61.2376871  58.9417646  14.1929539
  74.1462848  71.9671831  17.7059219  74.6981156  72.1303452  18.4708304
  74.4869041  72.5576269  17.0339244  69.1227341  54.3146981  18.3081104
  69.1868667  55.1761812  17.8958502  69.0594461  53.7020982  17.5753462
  78.9973722  66.7933088  23.5607874  79.5413626  67.4063047  23.0662828
  78.4160567  67.3512667  24.0774887  65.3745156  58.1946542   7.8872493
  65.6698597  57.2857221   7.8339547  64.4733192  58.1734282   7.5653495
  77.2831235  69.9153806  14.6922901  77.1582374  69.1143546  14.1833847
  77.9410326  70.4100000  14.2036871  68.9039403  56.2702539  13.8700042
  68.1825989  56.8838507  13.7307515  69.6932659  56.8060304  13.7916688
  79.3466143  67.7162826  16.3202452  78.3996479  67.5968178  16.2480778
  79.6948916  66.8285325  16.4028713  71.7065717  53.6056965  20.1440693
  72.2300118  53.8519262  20.9067003  71.4878050  54.4377000  19.7243831
  67.1032998  55.8760640   8.0111818  66.7745704  54.9958019   7.8286924
  67.4572368  55.8208309   8.8988207  76.3512577  67.5115543  12.5206804
  76.2037539  66.5832250  12.7014374  77.1766070  67.5335633  12.0363879
  70.2174821  56.1633610   8.3787296  70.5570893  56.6919531   7.6565904
  70.6646941  56.5014016   9.1545862  79.9546698  68.3344101  13.6071676
  80.8793246  68.1286963  13.4696128  79.7862002  68.0860503  14.5161018
  72.9118262  54.5470661  17.8290364  72.5715082  53.7478474  18.2311044
  72.2057268  54.8472371  17.2567197  73.5634733  51.6319973  16.2817687
  74.3860803  51.1580451  16.1596577  73.8072797  52.4110457  16.7816373
  72.2042968  54.6608231   6.5780589  72.9251330  55.0389484   6.0744305
  71.5808272  55.3797108   6.6815567  76.3474091  55.3653380   7.5138921
  76.5637705  56.2478018   7.2127749  75.8668158  54.9739594   6.7844563
  71.0873312  58.3239094  14.0909666  70.9417893  58.6379397  14.9833947
  70.6098516  58.9423994  13.5380564  72.9469695  55.3141642  14.1390555
  72.9331264  54.4182735  13.8022853  73.6642123  55.3212305  14.7728841
  74.7995826  55.7478982  16.1843683  74.5413604  56.6696052  16.1828013
  74.2680866  55.3509416  16.8744147  72.3506591  54.1956022   9.4078125
  72.4722502  53.2672668   9.6069013  72.0608633  54.2094708   8.4956441
  75.2197781  51.8810932  12.5444845  75.2419478  51.9450265  11.5896825
  75.6365840  51.0415441  12.7385351  85.5981406  61.6166192  10.5824068
  86.0412552  60.8673517  10.1843191  84.7207916  61.6076328  10.1997800
  74.2928659  69.5330312  19.7207874  74.6015785  69.2879459  20.5930573
  75.0904141  69.7376951  19.2326744  74.3149271  71.6868222  11.9513250
  73.8754261  71.1944601  12.6446107  75.0657388  71.1441190  11.7105325
  66.7941610  67.8779763  11.9537878  67.6199630  67.5783535  11.5736522
  66.4435662  67.1087385  12.4027667  71.7623143  67.2306231  14.0235552
  71.1403152  66.5676936  13.7237780  72.4328010  67.2567363  13.3409200
  64.9950215  65.7966089  12.9126812  64.1582123  65.3688264  12.7310813
  64.9673860  65.9898533  13.8497603  82.3202516  66.2529142  22.8969195
  81.5298060  66.2353281  22.3573694  82.0835871  66.7917436  23.6518232
  82.4400391  63.1021609  20.2101923  82.4898396  62.9371616  21.1517446
  82.3314315  62.2348868  19.8199804  71.3236650  65.7810155   7.4994012
  71.4724770  66.4645619   6.8460685  72.1303093  65.7615245   8.0143468
  79.7304154  59.0852537  21.5261230  80.6314016  58.9459002  21.2345228
  79.8052128  59.2506992  22.4659408  74.0646959  56.4619392  20.3714417
  73.1950268  56.7552958  20.0997005  74.3006439  57.0459837  21.0921680
  83.9418588  65.5218550  20.4543945  83.6503396  65.8848531  21.2907406
  83.3290719  64.8085559  20.2757277  85.1414270  63.0871430  12.9746515
  85.9761162  63.5261234  13.1384076  85.2773399  62.6110083  12.1554761
  82.1905776  60.6451165  18.9224003  82.6659898  60.8378811  18.1142854
  81.2671342  60.7010351  18.6767387  69.0789283  61.8075332   8.5055081
  68.8335325  60.9037662   8.7035291  69.2485197  61.8092483   7.5634559
  76.7685993  52.6799009  17.8879837  77.2867937  53.4160035  17.5626325
  76.4141126  52.9863002  18.7226596  68.3484930  57.5403690   6.0041243
  67.6554175  57.6148045   5.3481279  68.1036682  56.7764033   6.5262760
  77.0198587  49.0999291  13.4080734  77.3000341  48.4322480  14.0341160
  77.8049194  49.2928387  12.8955397  80.8907445  57.5216925  17.1552309
  81.8424868  57.6215023  17.1764533  80.7210896  56.7295194  17.6650393
  78.9121825  54.6072508  17.3411710  78.3171757  54.8877521  16.6458198
  78.6271522  55.0966409  18.1128451  83.3695523  60.7423045  16.2694608
  83.3371843  59.8039045  16.4554292  83.9796147  60.8207081  15.5360433
  75.2078854  59.6119098   2.3121812  76.1537959  59.4825306   2.3810230
  74.8293099  58.8733760   2.7891240  83.5190012  57.5334088  16.3152891
  83.0029060  56.7492545  16.1282820  84.4029960  57.2052805  16.4799411
  81.1800739  51.2775104  12.2748704  80.9825560  50.9690192  13.1592036
  81.7900444  52.0036743  12.4046634  89.1872073  61.8039052  15.4100645
  89.9175461  61.5424340  15.9708348  88.5779018  61.0667774  15.4502713
  87.2687370  59.9446914  16.0075096  86.5420534  59.8102879  15.3991588
  86.8534657  60.2523743  16.8131814  75.0917547  63.6636844  23.7722469
  76.0120556  63.8415443  23.9662516  75.0567130  62.7192889  23.6202169
  73.3921771  57.5369074   2.2476698  72.4853227  57.2402187   2.3239411
  73.6697752  57.2398892   1.3810984  64.3099712  58.8575438  12.6975744
  63.9902496  58.0040746  12.4050118  63.7633140  59.0724016  13.4533711
  75.0083837  52.0805964   8.4020939  74.1984565  51.7353049   8.7776185
  75.6968254  51.7713508   8.9908550  76.9374385  51.1584011  10.0245235
  77.4905424  51.5779464  10.6835259  77.1744472  50.2319759  10.0668191
  72.9607484  57.1471084  25.8047999  72.8604211  58.0965441  25.7360090
  72.7429026  56.8189323  24.9324069  72.1620556  54.3956009   2.3888677
  73.0239720  54.7210908   2.6484494  72.3470900  53.6087505   1.8761743
  64.1787972  62.4778349  14.6668866  63.4851443  62.0632302  14.1538820
  64.9260963  62.5198886  14.0702284  80.3153192  53.2684536   9.5323900
  79.7351861  53.9269340   9.1501952  80.0489125  52.4461880   9.1211317
  78.7656759  52.6689593  11.7345220  79.2656537  52.7806128  10.9259539
  79.4092367  52.3650646  12.3746029  72.8238754  60.5768223  24.6213061
  72.3405836  61.3768583  24.8276950  72.9099693  60.5876168  23.6680505
  66.0924714  62.4096603  12.5434880  66.0695402  62.5084290  11.5916764
  66.4025351  63.2561754  12.8652047  68.7512092  64.4672758  16.6581495
  69.7055345  64.4356700  16.5911426  68.5524616  64.0063382  17.4731721
  79.0978070  55.4284626   8.5880248  78.2103925  55.7134277   8.3700443
  79.5132059  55.2678390   7.7407525  82.4492606  55.4531147  12.3034587
  83.2252997  55.9427600  12.5759204  81.7240741  55.8789201  12.7606457
  84.8865165  56.1658766  13.3608528  85.4809656  55.9254502  12.6501836
  84.9591749  55.4465897  13.9882064  67.1062321  70.0092377  13.6751693
  66.9716789  69.2492778  13.1089691  66.6894383  70.7333277  13.2080482
  79.0719094  60.9439162   8.8030538  79.0154295  61.4007714   7.9638171
  79.6247436  60.1829847   8.6253381  82.8823900  56.7328894   9.6280658
  82.6260834  56.3325530  10.4588865  82.2576768  57.4472688   9.5030797
  87.1936238  59.4724967  12.1351949  86.6335796  59.5418157  12.9083511
  86.5879741  59.2965952  11.4151445  70.2631447  70.9061694  13.8870135
  70.1463831  71.8507127  13.7848826  69.4423893  70.6035256  14.2755935
  79.8053873  62.1343943   6.0983067  79.7502677  61.9688215   5.1571511
  79.1799929  62.8419976   6.2545257  77.1199781  64.4392855  25.4236630
  77.9890940  64.6133507  25.0623265  76.6406532  65.2587272  25.3012359
  73.1149999  51.6352052   5.6768386  73.1028669  52.5793892   5.8336657
  74.0073421  51.4522198   5.3827847  71.2885961  71.5589956  17.1026064
  72.1913207  71.5913566  17.4192559  71.0623331  70.6290407  17.1172400
  73.0439563  70.3120943  13.7636142  72.0935194  70.3122804  13.6500515
  73.3472049  69.5653677  13.2472177  76.9302118  48.2294829   9.9314323
  76.1634514  47.6753316  10.0771005  77.3412823  48.3016698  10.7928474
  86.0701746  77.2543761  20.7229635  86.0590386  76.8596559  19.8510139
  86.2322385  76.5209834  21.3163406  82.7909007  80.0380873  19.6708819
  82.4998873  80.9426504  19.5555485  83.4265991  80.0797400  20.3852889
  83.7165214  77.4157721  16.2610179  84.3128786  77.1913744  15.5467142
  83.7740185  76.6742467  16.8635626  91.2567372  67.5229742  17.2662700
  90.9250697  68.3925153  17.0423915  90.6612986  67.2066026  17.9456730
  78.5620184  75.8189359  13.5339106  78.6912565  76.0723838  14.4478518
  77.8817636  76.4117067  13.2143761  85.2236901  73.6614474  22.2890947
  84.4470235  74.2208394  22.2793812  85.8627464  74.1471257  22.8105817
  93.0157682  70.4441267  16.1233924  92.3732062  70.7373800  15.4773718
  92.5112610  70.3294187  16.9287121  83.4783274  76.4699927  21.8508914
  84.2197958  77.0084971  21.5743738  82.7720259  77.0966216  22.0080466
  88.9538613  78.6129068  20.4481076  89.3621969  78.1711478  19.7035708
  88.2315875  78.0381695  20.7015269  85.3069683  73.5501675  17.8214633
  86.1530878  73.9741088  17.9649282  85.2468321  72.8935299  18.5153196
  88.4569129  71.2106043  19.4795806  88.2130061  71.9648104  18.9430082
  88.7329059  71.5891391  20.3143053  88.0133820  70.3662476  15.0609644
  87.1518299  70.6643730  15.3526382  88.0396255  70.5832875  14.1290677
  82.2144637  73.6239576  22.6524224  81.5843298  74.3055856  22.8859621
  82.1080725  73.5122657  21.7077363  77.5089610  73.2911372  13.5790148
  76.7188664  73.5468900  13.1030259  78.0000857  74.1059709  13.6842189
  85.2910023  80.1800654  18.4856140  85.3554455  80.6421061  19.3214312
  84.5820947  79.5498019  18.6138450  75.7927313  73.5441862  16.0105139
  76.0435351  74.4288872  16.2762715  76.3286861  73.3646464  15.2380231
  81.4925380  67.9260341  25.0149475  81.0992326  67.3726540  25.6897120
  82.3091520  68.2370920  25.4055993  84.4093341  69.3418221  22.6069732
  85.1503054  69.9425374  22.5274194  84.6411264  68.5995858  22.0487774
  79.5534679  74.5274588  20.8847962  79.4388194  73.6259845  21.1855060
  78.6979197  74.7738285  20.5332778  86.6326517  82.4692328  22.4835462
  86.1890371  81.6828707  22.1656367  87.2943730  82.6571479  21.8179353
  85.1880809  80.2639258  21.3540372  85.7209146  79.5027546  21.1239680
  84.6594890  79.9712909  22.0964526  88.3550504  65.3699323  16.8834014
  88.0114773  66.2600965  16.8073124  88.7229467  65.1800981  16.0203599
  87.4347044  67.7403979  14.8483247  86.9311840  67.7034114  14.0351052
  87.7277651  68.6496721  14.9079903  83.6789930  67.8242708  13.8549429
  84.5442927  67.6285517  13.4955318  83.7467439  67.5953060  14.7818785
  81.2852249  70.0544916  11.2265795  81.8596001  69.8320098  10.4938988
  81.8723232  70.1233611  11.9794397  83.5874917  66.9286165   9.9540865
  82.9339329  66.6135182   9.3297480  83.5455391  66.3061906  10.6800688
  87.9625821  74.0065560  19.0833215  88.3175209  74.2337033  19.9427681
  88.6097952  74.3383937  18.4610470  81.8565684  71.1142091  15.8679556
  82.4965063  70.9730850  15.1702519  81.0243215  70.8276604  15.4918158
  78.8594301  71.0842416  10.6452543  79.1201118  71.9987749  10.5361703
  79.6811473  70.6166859  10.7949156  80.3319226  72.4980173  17.8151367
  81.0042279  72.2897535  17.1664016  79.5049012  72.3002259  17.3756600
  86.2344798  69.1242114  19.8317028  85.5872713  69.8232064  19.7381505
  87.0045813  69.5578258  20.1993277  89.6423596  79.3890966  22.9067582
  89.4909102  79.1601518  21.9897665  89.6328275  80.3461568  22.9198927
  86.4108932  76.9622879  17.8913848  87.3400992  77.1134039  17.7182815
  85.9899962  77.0506900  17.0362495  80.7346723  75.7722776  18.5753805
  80.5966521  75.0403015  19.1765344  81.6451647  75.6831676  18.2937992
  83.3629024  75.4842735  18.0637484  84.0728642  74.8435928  18.0224103
  83.3198332  75.7355630  18.9863665  82.0757958  72.4707953  19.8833124
  81.5395315  72.0198692  20.5354720  81.4874666  72.6053862  19.1403588
  73.0062357  76.7173764  12.5401095  73.6933397  76.4035495  11.9522110
  72.8510486  77.6215129  12.2668346  77.8097079  71.6063961  16.9686118
  77.7255268  70.9989631  16.2336528  76.9879785  72.0972979  16.9695615
  82.3944960  82.6932403  19.1583016  83.0954420  83.3268886  19.3112410
  81.9240075  83.0347134  18.3978655  90.4239788  67.0587118  14.4835672
  89.5102867  67.2891345  14.6517879  90.8532889  67.1425562  15.3349705
  90.1946246  75.2477010  16.9835566  89.5417696  75.4952917  16.3288019
  90.5726626  74.4341148  16.6498043  86.2433819  75.9896821  23.4701603
  85.5674456  75.8890950  24.1403978  87.0661453  75.8336035  23.9337600
  77.9912678  82.2268758  16.0914119  78.5766115  81.4812446  16.2242023
  77.7937517  82.5372714  16.9750782  72.5830333  74.7974358  14.8118562
  72.6214432  74.2637949  15.6055680  72.0770626  74.2709563  14.1929539
  79.9621095  69.6438898  18.3081104  80.0262422  70.5053729  17.8958502
  79.8988216  69.0312900  17.5753462  79.4373368  71.7162031  21.9554138
  80.0645407  71.3339108  22.5691663  78.5801287  71.4976233  22.3209831
  89.8367476  82.1225006  23.5607874  90.3807380  82.7354964  23.0662828
  89.2554321  82.6804584  24.0774887  79.7433158  71.5994457  13.8700042
  79.0219743  72.2130424  13.7307515  80.5326413  72.1352221  13.7916688
  82.5459471  68.9348883  20.1440693  83.0693873  69.1811180  20.9067003
  82.3271804  69.7668918  19.7243831  83.7512016  69.8762578  17.8290364
  83.4108836  69.0770391  18.2311044  83.0451022  70.1764289  17.2567197
  84.4028488  66.9611891  16.2817687  85.2254557  66.4872369  16.1596577
  84.6466551  67.7402374  16.7816373  81.9267067  73.6531011  14.0909666
  81.7811647  73.9671314  14.9833947  81.4492270  74.2715912  13.5380564
  83.7863450  70.6433559  14.1390555  83.7725018  69.7474653  13.8022853
  84.5035878  70.6504223  14.7728841  85.6389580  71.0770899  16.1843683
  85.3807358  71.9987970  16.1828013  85.1074621  70.6801334  16.8744147
  76.4012729  76.1936356  17.0297327  75.8566197  76.9696164  17.1617601
  77.2792079  76.5407160  16.8716448  86.0591536  67.2102850  12.5444845
  86.0813233  67.2742183  11.5896825  86.4759595  66.3707359  12.7385351
  77.1878751  75.3206252  19.9227484  76.4460487  75.4688887  20.5092114
  76.8671495  75.5814518  19.0594233  82.6741425  71.0379937  23.6168058
  82.7229581  71.9142060  23.2345827  83.2163939  70.4957330  23.0439701
  93.1596271  81.5821060  22.8969195  92.3691814  81.5645199  22.3573694
  92.9229625  82.1209354  23.6518232  93.2794146  78.4313526  20.2101923
  93.3292151  78.2663534  21.1517446  93.1708069  77.5640786  19.8199804
  90.5697908  74.4144455  21.5261230  91.4707771  74.2750919  21.2345228
  90.6445883  74.5798909  22.4659408  84.9040713  71.7911309  20.3714417
  84.0344023  72.0844875  20.0997005  85.1400194  72.3751754  21.0921680
  87.6079747  68.0090926  17.8879837  88.1261691  68.7451953  17.5626325
  87.2534880  68.3154919  18.7226596  87.8592341  64.4291209  13.4080734
  88.1394095  63.7614398  14.0341160  88.6442948  64.6220304  12.8955397
  91.7301200  72.8508843  17.1552309  92.6818623  72.9506940  17.1764533
  91.5604650  72.0587111  17.6650393  89.7515579  69.9364426  17.3411710
  89.1565511  70.2169439  16.6458198  89.4665276  70.4258327  18.1128451
  85.9311301  78.9928762  23.7722469  86.8514310  79.1707361  23.9662516
  85.8960884  78.0484807  23.6202169  75.1493466  74.1867355  12.6975744
  74.8296250  73.3332663  12.4050118  74.6026894  74.4015933  13.4533711
  78.9273374  76.9029796  16.4145250  79.1459383  77.8346904  16.4333284
  79.3399147  76.5437771  17.2000054  83.8001239  72.4763002  25.8047999
  83.6997966  73.4257359  25.7360090  83.5822781  72.1481241  24.9324069
  75.0181726  77.8070267  14.6668866  74.3245197  77.3924219  14.1538820
  75.7654717  77.8490803  14.0702284  83.6632509  75.9060141  24.6213061
  83.1799591  76.7060501  24.8276950  83.7493448  75.9168086  23.6680505
  79.5905846  79.7964675  16.6581495  80.5449100  79.7648618  16.5911426
  79.3918370  79.3355299  17.4731721  80.1805229  78.3665792  19.2252292
  80.9998118  78.8609870  19.2487130  80.4542036  77.4497760  19.1969860
  75.4340143  72.7003925  19.9244490  76.0799006  72.1902879  20.4131715
  75.2257294  73.4372607  20.4987915  87.9593535  79.7684773  25.4236630
  88.8284695  79.9425425  25.0623265  87.4800286  80.5879190  25.3012359
  87.7695873  63.5586747   9.9314323  87.0028269  63.0045233  10.0771005
  88.1806578  63.6308615  10.7928474  79.7737634  69.8471542  24.0219504
  80.6369095  69.4908347  24.2322828  79.2003044  69.5085437  24.7094908
  92.3319135  83.2552259  25.0149475  91.9386080  82.7018458  25.6897120
  93.1485275  83.5662838  25.4055993  90.6131388  85.1763460  24.0219504
  91.4762850  84.8200265  24.2322828  90.0396799  84.8377355  24.7094908
  57.3186214  13.1411376  10.2853180  57.8626118  13.7541334   9.7908135
  56.7373059  13.6990954  10.8020193  67.1004749  22.4959768   1.5527211
  67.7383158  22.3766516   0.8490551  66.9825591  23.4440612   1.6115164
  64.3914238  23.6022048   7.4474942  64.3802879  23.2074846   6.5755445
  64.5534877  22.8688121   8.0408713  61.1121499  26.3859160   6.3954126
  60.8211365  27.2904791   6.2800792  61.7478483  26.4275688   7.1098195
  62.0377706  23.7636009   2.9855485  62.6341278  23.5392031   2.2712448
  62.0952677  23.0220754   3.5880933  66.0711384  26.0720576   3.3903919
  65.7712107  26.9745614   3.2819727  65.7262444  25.8052759   4.2425072
  63.5449394  20.0092761   9.0136254  62.7682728  20.5686681   9.0039119
  64.1839957  20.4949544   9.5351124  61.7995766  22.8178215   8.5754221
  62.5410450  23.3563259   8.2989045  61.0932751  23.4444503   8.7325773
  67.2751106  24.9607355   7.1726382  67.6834462  24.5189766   6.4281015
  66.5528367  24.3859983   7.4260575  63.6282176  19.8979962   4.5459939
  64.4743371  20.3219375   4.6894588  63.5680813  19.2413586   5.2398502
  67.5979920  25.5208546   0.9278671  66.9688783  25.6854260   0.2254739
  67.2105582  25.9350155   1.6989635  71.4769152  26.4562984  -1.7176965
  70.7920190  26.8361885  -2.2679932  71.5613001  27.0658310  -0.9845017
  66.7781621  17.5584330   6.2041113  66.5342553  18.3126391   5.6675389
  67.0541551  17.9369678   7.0388360  68.7320084  24.1022943   4.8818379
  68.9436979  24.7454703   4.2052760  68.6849832  23.2685259   4.4140309
  60.5357130  19.9717863   9.3769531  59.9055790  20.6534144   9.6104928
  60.4293218  19.8600944   8.4322669  69.8465912  26.9794898   3.0540736
  70.6683355  26.5775085   2.7723418  69.8428314  26.8763132   4.0056852
  63.6122515  26.5278941   5.2101446  63.6766948  26.9899349   6.0459618
  62.9033439  25.8976306   5.3383756  59.8137872  14.2738629  11.7394782
  59.4204818  13.7204827  12.4142426  60.6304013  14.5849207  12.1301299
  62.7305833  15.6896508   9.3315039  63.4715547  16.2903661   9.2519501
  62.9623756  14.9474146   8.7733081  57.8747171  20.8752875   7.6093268
  57.7600686  19.9738132   7.9100367  57.0191689  21.1216572   7.2578085
  64.9539009  28.8170615   9.2080769  64.5102863  28.0306994   8.8901673
  65.6156223  29.0049766   8.5424660  59.7126130  30.3466417   3.7341447
  60.2633555  30.2183480   2.9618441  58.8737606  30.6461306   3.3836340
  67.0520247  29.0973415   7.2362170  67.0338723  29.9182296   6.7442439
  67.9740167  28.9727491   7.4612311  63.5093301  26.6117545   8.0785678
  64.0421638  25.8505833   7.8484986  62.9807382  26.3191197   8.8209833
  69.8538860  23.9352558   0.7071537  69.1962534  24.6251819   0.7951665
  70.6579259  24.3248990   1.0505523  67.8739054  29.1079429  -2.1795561
  68.1662029  29.6684486  -2.8983195  68.3837675  29.4007990  -1.4242402
  66.2838313  20.3543847   5.8078522  66.6387701  20.5815320   6.6672987
  66.9310445  20.6862224   5.1855777  72.0405430  25.5438810   1.5239122
  72.4741937  25.4514099   2.3722176  72.7537011  25.5196311   0.8859138
  65.7733325  29.1440904   3.0572223  65.8270347  29.7131841   3.8249939
  64.9048106  29.3142789   2.6926260  72.9020979  25.5862511   4.0572008
  73.0956869  26.4908321   4.3031283  72.8021598  25.1269930   4.8910593
  64.5557290  15.4720401   6.5562335  63.9085205  16.1710351   6.4626811
  65.3258306  15.9056545   6.9238583  67.9636088  25.7369253   9.6312888
  67.8121594  25.5079805   8.7142972  67.9540768  26.6939855   9.6444233
  64.7321424  23.3101166   4.6159155  65.6613484  23.4612326   4.4428122
  64.3112455  23.3985187   3.7607801  63.5309756  27.3351831   2.3857692
  63.3920842  26.9670615   3.2583630  62.7424352  27.8499470   2.2141650
  59.0559215  22.1201063   5.2999111  58.9179013  21.3881302   5.9010650
  59.9664139  22.0309963   5.0183299  61.6841516  21.8321023   4.7882791
  62.3941135  21.1914215   4.7469409  61.6410824  22.0833918   5.7108972
  69.6728295  28.7688376   7.7089370  69.6140841  28.0847596   7.0419953
  70.0747813  29.5107366   7.2569996  60.3970450  18.8186241   6.6078430
  59.8607807  18.3676979   7.2600027  59.8087158  18.9532149   5.8648895
  58.6918994  35.5850290   0.5023089  58.9315592  36.2168814   1.1802108
  57.8488190  35.2338330   0.7888448  69.6745702  26.7327960   5.9403350
  68.7872481  26.3953882   6.0629749  70.2444253  26.0010991   6.1772115
  63.2046855  31.3929412   2.9064593  63.1317027  32.1984384   3.4183898
  62.7624248  31.5921378   2.0812614  65.6645539  31.2916246   5.0622752
  66.3773511  31.9263711   4.9898653  65.1735568  31.3880112   4.2462753
  60.7157452  29.0410690   5.8828322  61.4166912  29.6747173   6.0357717
  60.2452567  29.3825421   5.1223962  68.5158738  21.5955297   3.7080873
  67.8630189  21.8431205   3.0533326  68.8939118  20.7819435   3.3743350
  65.4765912  31.6314990  -2.1890957  65.6588307  30.8136646  -1.7263205
  66.2998898  31.8482683  -2.6266067  64.5646311  22.3375108  10.1946910
  63.8886948  22.2369238  10.8649285  65.3873945  22.1814322  10.6582907
  56.3125171  28.5747045   2.8159425  56.8978607  27.8290733   2.9487329
  56.1150009  28.8851002   3.6996089  63.3069094  33.6442036   4.4304526
  63.8587402  33.8073657   5.1953611  63.6475288  34.2346474   3.7584551
  57.7585860  18.0640318   8.6799445  58.3857899  17.6817395   9.2936969
  56.9013779  17.8454520   9.0455137  68.1579969  28.4703293  10.2853180
  68.7019873  29.0833252   9.7908135  67.5766813  29.0282872  10.8020193
  66.4437482  31.5924011   1.4168208  66.3188621  30.7913751   0.9079154
  67.1016573  32.0870205   0.9282178  68.5072390  29.3933031   3.0447758
  67.5602726  29.2738383   2.9726085  68.8555163  28.5055529   3.1274020
  65.5118823  29.1885748  -0.7547890  65.3643786  28.2602455  -0.5740320
  66.3372317  29.2105838  -1.2390814  69.1152945  30.0114306   0.3316983
  70.0399493  29.8057168   0.1941434  68.9468248  29.7630708   1.2406325
  63.4534906  31.2100517   6.4453180  63.7622032  30.9649664   7.3175880
  64.2510388  31.4147156   5.9572050  63.4755518  33.3638427  -1.3241443
  63.0360508  32.8714806  -0.6308586  64.2263635  32.8211395  -1.5649368
  60.9229390  28.9076436   0.7480858  60.3009399  28.2447141   0.4483086
  61.5934257  28.9337568   0.0654506  60.9953917  17.3858224  10.3413365
  61.0442073  18.2620347   9.9591134  61.5376432  16.8435617   9.7685008
  71.4808763  27.9299347   9.6214502  70.6904307  27.9123486   9.0819001
  71.2442118  28.4687641  10.3763538  71.6006638  24.7791814   6.9347230
  71.6504643  24.6141821   7.8762753  71.4920561  23.9119073   6.5445111
  68.8910400  20.7622742   8.2506537  69.7920263  20.6229207   7.9590535
  68.9658375  20.9277197   9.1904714  63.2253206  18.1389597   7.0959723
  62.3556515  18.4323163   6.8242312  63.4612686  18.7230042   7.8166987
  73.1024835  27.1988755   7.1789252  72.8109643  27.5618736   8.0152713
  72.4896966  26.4855764   7.0002584  71.3512023  22.3221370   5.6469310
  71.8266145  22.5149016   4.8388161  70.4277588  22.3780556   5.4012693
  70.0513692  19.1987130   3.8797615  71.0031115  19.2985228   3.9009839
  69.8817143  18.4065399   4.3895700  72.5301770  22.4193250   2.9939915
  72.4978090  21.4809250   3.1799599  73.1402394  22.4977286   2.2605740
  64.2523793  25.3407049  10.4967776  65.1726803  25.5185648  10.6907822
  64.2173376  24.3963094  10.3447475  62.1213731  18.8241289  12.5293306
  62.0210458  19.7735646  12.4605397  61.9035273  18.4959528  11.6569376
  61.9845001  22.2538428  11.3458368  61.5012083  23.0538788  11.5522257
  62.0705940  22.2646373  10.3925812  57.9118339  26.1442963   3.3826801
  58.8661592  26.1126905   3.3156733  57.7130862  25.6833586   4.1977027
  58.5017721  24.7144079   5.9497599  59.3210610  25.2088157   5.9732436
  58.7754529  23.7976047   5.9215167  59.4237693  32.5831899   0.6115442
  59.3070078  33.5277332   0.5094132  58.6030140  32.2805461   1.0001241
  66.2806027  26.1163060  12.1481937  67.1497187  26.2903712  11.7868572
  65.8012779  26.9357477  12.0257666  60.4492207  33.2360161   3.8271370
  61.3519454  33.2683771   4.1437865  60.2229578  32.3060612   3.8417706
  62.2045810  31.9891148   0.4881449  61.2541441  31.9893009   0.3745821
  62.5078296  31.2423882  -0.0282516  58.0950126  16.1949830  10.7464810
  58.9581588  15.8386635  10.9568135  57.5215537  15.8563725  11.4340215
  77.9398503  37.8251686   1.5527211  78.5776913  37.7058433   0.8490551
  77.8219346  38.7732530   1.6115164  74.7488209  37.7779114   1.4888736
  74.4106721  37.6620179   0.6009271  75.6177977  37.3770279   1.4689742
  70.6075025  39.6314591  -2.5214373  70.0439890  39.5404528  -3.2898085
  70.4927420  38.8114495  -2.0411880  75.2307992  38.9313966   7.4474942
  75.2196633  38.5366764   6.5755445  75.3928632  38.1980039   8.0408713
  68.1539457  41.1265782   0.3169848  68.9460749  40.7856607  -0.0983853
  68.3936107  41.2360757   1.2372001  76.1874584  43.2985558  -7.2099908
  75.5362563  43.8839639  -7.5965894  76.9818947  43.8291753  -7.1504871
  70.1130211  40.3874695  -6.8112774  70.8861087  39.8403683  -6.9499898
  70.4655610  41.2518945  -6.5998312  71.9515253  41.7151078   6.3954126
  71.6605119  42.6196709   6.2800792  72.5872238  41.7567605   7.1098195
  72.8771460  39.0927926   2.9855485  73.4735033  38.8683949   2.2712448
  72.9346432  38.3512672   3.5880933  77.4939771  35.5503140  -1.3719581
  78.2802861  35.1322563  -1.7229164  77.7578476  36.4549232  -1.2037932
  72.1692777  38.4495468  -6.9769949  72.0529036  37.7740371  -6.3088864
  72.2795037  37.9627841  -7.7937796  74.5124318  37.9105615  -3.2723260
  74.1482526  37.3836236  -2.5610338  75.3691434  37.5204084  -3.4456774
  80.4173619  29.1999947   3.9908007  80.0856944  30.0695358   3.7669222
  79.8219232  28.8836231   4.6702037  76.9105138  41.4012493   3.3903919
  76.6105862  42.3037532   3.2819727  76.5656198  41.1344676   4.2425072
  70.3617620  37.8526290  -0.5759376  69.4368116  37.7202504  -0.3681684
  70.6102033  38.6320509  -0.0789434  80.3102282  33.9195033   1.0701357
  79.4019160  33.8510442   0.7760118  80.2589878  34.3966978   1.8983182
  67.7226431  37.4959564   0.2584413  67.8518812  37.7494043   1.1723825
  67.0423882  38.0887272  -0.0610932  71.8925918  48.1656814  -3.6425113
  71.8149948  49.1164639  -3.5636632  71.2887562  47.8202686  -2.9850187
  74.3843148  35.3384679   9.0136254  73.6076482  35.8978599   9.0039119
  75.0233711  35.8241462   9.5351124  82.1763929  32.1211472   2.8479231
  81.5338309  32.4144005   2.2019025  81.6718857  32.0064392   3.6532427
  72.6389520  38.1470132   8.5754221  73.3804205  38.6855176   8.2989045
  71.9326506  38.7736421   8.7325773  78.1144860  40.2899273   7.1726382
  78.5228216  39.8481683   6.4281015  77.3922122  39.7151900   7.4260575
  74.4675930  35.2271880   4.5459939  75.3137125  35.6511293   4.6894588
  74.4074568  34.5705504   5.2398502  78.4373675  40.8500463   0.9278671
  77.8082537  41.0146178   0.2254739  78.0499337  41.2642073   1.6989635
  82.3162907  41.7854901  -1.7176965  81.6313945  42.1653803  -2.2679932
  82.4006756  42.3950228  -0.9845017  77.6175375  32.8876248   6.2041113
  77.3736307  33.6418308   5.6675389  77.8935306  33.2661596   7.0388360
  79.5713838  39.4314860   4.8818379  79.7830733  40.0746620   4.2052760
  79.5243586  38.5977177   4.4140309  77.1740067  32.0432681   1.7854951
  76.3124546  32.3413935   2.0771688  77.2002502  32.2603080   0.8535983
  73.9901637  40.5874872  -1.8071244  74.4539982  40.8662575  -2.5966621
  73.7258435  39.6858316  -1.9898153  70.8825718  40.1346353   1.1308520
  71.4527075  40.5633621   0.4926004  71.4733829  39.8528938   1.8292705
  72.9270523  36.7098024  -4.9981678  73.6294566  37.1619068  -4.5307752
  72.5951151  36.0681843  -4.3701785  71.3750884  35.3009781   9.3769531
  70.7449545  35.9826061   9.6104928  71.2686972  35.1892862   8.4322669
  66.6695857  34.9681577   0.3035455  65.8794911  35.2239105  -0.1724434
  67.1607104  35.7829914   0.4087496  80.6859666  42.3086816   3.0540736
  81.5077110  41.9067003   2.7723418  80.6822069  42.2055050   4.0056852
  68.6210602  35.3326156  -2.7381068  67.8241765  35.4444850  -2.2197573
  68.3936194  35.6712808  -3.6040178  74.4516270  41.8570859   5.2101446
  74.5160702  42.3191266   6.0459618  73.7427193  41.2268224   5.3383756
  64.9533560  35.2212067   2.7350446  65.2041598  36.1059077   3.0008022
  65.4893108  35.0416669   1.9625538  74.1664287  43.5238967  -4.9219573
  74.0309962  44.3690502  -4.4934725  74.7074100  43.7258244  -5.6853639
  70.6531627  29.6030546  11.7394782  70.2598572  29.0496745  12.4142426
  71.4697767  29.9141125  12.1301299  67.6193685  41.0414405  -4.3491648
  68.1318205  41.8357655  -4.1986083  68.2716397  40.3440695  -4.4158047
  69.4288569  44.1580161  -2.2668895  69.6055198  45.0798126  -2.4547911
  70.2245403  43.8438580  -1.8374515  73.5699588  31.0188425   9.3315039
  74.3109301  31.6195579   9.2519501  73.8017511  30.2766063   8.7733081
  68.7140926  36.2044793   7.6093268  68.5994441  35.3030050   7.9100367
  67.8585444  36.4508489   7.2578085  75.7932764  44.1462533   9.2080769
  75.3496618  43.3598912   8.8901673  76.4549977  44.3341684   8.5424660
  70.5519885  45.6758335   3.7341447  71.1027310  45.5475398   2.9618441
  69.7131361  45.9753224   3.3836340  77.8914002  44.4265333   7.2362170
  77.8732477  45.2474214   6.7442439  78.8133922  44.3019408   7.4612311
  74.3487056  41.9409462   8.0785678  74.8815393  41.1797751   7.8484986
  73.8201137  41.6483114   8.8209833  77.5156751  27.0469528   3.6079320
  77.1721020  27.9371170   3.5318431  77.8835713  26.8571186   2.7448905
  65.5842601  39.3703059  -3.5732078  66.4217823  39.7800067  -3.7898370
  65.7620869  38.4302501  -3.6031884  76.5953291  29.4174184   1.5728553
  76.0918087  29.3804319   0.7596359  76.8883898  30.3266926   1.6325210
  72.8396177  29.5012913   0.5794735  73.7049174  29.3055722   0.2200625
  72.9073686  29.2723265   1.5064092  75.7139769  41.0695455  -4.4095510
  75.1861130  40.3348214  -4.7222272  75.2127271  41.8470131  -4.6555541
  80.6932615  39.2644475   0.7071537  80.0356289  39.9543737   0.7951665
  81.4973014  39.6540907   1.0505523  70.4458496  31.7315121  -2.0488898
  71.0202248  31.5090303  -2.7815705  71.0329479  31.8003816  -1.2960297
  79.5038073  37.6188848  -1.2424521  80.0169955  38.2518840  -0.7402812
  80.1539297  37.0190044  -1.6081161  75.9818904  35.0938304   1.0033819
  75.0641466  35.3153251   0.8455507  76.3979048  35.1684614   0.1445526
  80.2699870  42.5994850  -3.1145379  79.8162197  41.7585759  -3.0580188
  79.6393836  43.2356248  -2.7770599  78.7132809  44.4371346  -2.1795561
  79.0055783  44.9976403  -2.8983195  79.2231429  44.7299907  -1.4242402
  65.6068773  36.7093774  -2.9021344  65.4093172  36.1163135  -3.6270278
  65.0515437  36.4045984  -2.1845405  73.5865496  36.6016881  -0.7826751
  73.6414106  35.6490717  -0.8584274  72.7756698  36.7576320  -0.2985453
  71.5257856  35.2193940  -3.0236372  70.7125722  35.5188111  -2.6171180
  72.0216850  34.8249629  -2.3061890  73.6766434  45.2151697  -1.0902108
  73.6342613  45.4412544  -2.0193575  74.5929133  44.9815072  -0.9416306
  77.1232068  35.6835765   5.8078522  77.4781456  35.9107238   6.6672987
  77.7704199  36.0154142   5.1855777  71.0171931  32.7912296   2.5924863
  71.6571310  32.6501055   1.8947826  70.1849461  32.5046809   2.2163465
  82.8799184  40.8730728   1.5239122  83.3135691  40.7806017   2.3722176
  83.5930765  40.8488228   0.8859138  71.7932235  42.0914726  -1.2940145
  72.5872833  41.5965046  -1.4957570  71.0823927  41.5632589  -1.6572439
  76.6127079  44.4732822   3.0572223  76.6664102  45.0423758   3.8249939
  75.7441861  44.6434707   2.6926260  68.1014998  36.2357808  -5.2180392
  67.1712586  36.1742264  -5.0010430  68.1972470  35.7133761  -6.0143751
  68.0200547  32.7612621  -2.6302150  68.2807365  33.6757954  -2.7392990
  68.8417720  32.2937063  -2.4805538  69.4925473  34.1750378   4.5396674
  70.1648526  33.9667740   3.8909323  68.6655259  33.9772464   4.1001906
  83.7414734  40.9154428   4.0572008  83.9350624  41.8200239   4.3031283
  83.6415352  40.4561847   4.8910593  75.3951045  30.8012319   6.5562335
  74.7478960  31.5002269   6.4626811  76.1652060  31.2348463   6.9238583
  78.8029843  41.0661171   9.6312888  78.6515349  40.8371723   8.7142972
  78.7934522  42.0231773   9.6444233  75.5715179  38.6393084   4.6159155
  76.5007239  38.7904244   4.4428122  75.1506209  38.7277105   3.7607801
  74.3703511  42.6643748   2.3857692  74.2314596  42.2962533   3.2583630
  73.5818107  43.1791388   2.2141650  75.9208726  42.0425351  -0.2253470
  75.5858559  42.0026121   0.6704180  75.4212672  41.3770067  -0.6983060
  69.8952970  37.4492981   5.2999111  69.7572768  36.7173220   5.9010650
  70.8057893  37.3601881   5.0183299  72.5235271  37.1612940   4.7882791
  73.2334889  36.5206133   4.7469409  72.4804579  37.4125835   5.7108972
  80.5122049  44.0980294   7.7089370  80.4534595  43.4139514   7.0419953
  80.9141568  44.8399284   7.2569996  71.2364205  34.1478158   6.6078430
  70.7001562  33.6968897   7.2600027  70.6480913  34.2824067   5.8648895
  69.5312748  50.9142208   0.5023089  69.7709346  51.5460732   1.1802108
  68.6881944  50.5630248   0.7888448  80.5139456  42.0619878   5.9403350
  79.6266235  41.7245799   6.0629749  81.0838008  41.3302909   6.1772115
  62.1668604  38.3943969  -0.7353599  62.8539643  38.0805699  -1.3232584
  62.0116732  39.2985334  -1.0086347  66.9703326  33.2834166   3.6931425
  66.8861514  32.6759836   2.9581835  66.1486032  33.7743184   3.6940921
  74.0440610  46.7221330   2.9064593  73.9710781  47.5276302   3.4183898
  73.6018003  46.9213296   2.0812614  73.8330389  45.9593100  -3.5832585
  73.0497911  46.5014780  -3.4894361  74.5323135  46.4767080  -3.1838344
  76.5039293  46.6208164   5.0622752  77.2167266  47.2555629   4.9898653
  76.0129322  46.7172030   4.2462753  78.2256820  40.5259417  -3.3659957
  77.2913099  40.6460879  -3.5355252  78.4033489  39.6231883  -3.6299947
  73.7262008  33.9105112  -1.2126695  73.3559796  33.3576153  -0.5245790
  74.2221101  33.3063246  -1.7651695  71.5551207  44.3702608   5.8828322
  72.2560666  45.0039090   6.0357717  71.0846322  44.7117339   5.1223962
  79.3552493  36.9247215   3.7080873  78.7023943  37.1723122   3.0533326
  79.7332873  36.1111353   3.3743350  76.3159667  46.9606908  -2.1890957
  76.4982061  46.1428564  -1.7263205  77.1392653  47.1774600  -2.6266067
  76.6501832  45.8875093  -4.9275908  77.1789599  45.3767548  -5.5405746
  76.9130052  45.5717623  -4.0630375  75.4040066  37.6667026  10.1946910
  74.7280703  37.5661155  10.8649285  76.2267700  37.5106240  10.6582907
  67.1518925  43.9038963   2.8159425  67.7372362  43.1582650   2.9487329
  66.9543763  44.2142919   3.6996089  70.0057580  46.9390210  -2.1678132
  69.3367955  47.4236338  -2.6514092  69.8670450  47.1859430  -1.2534754
  61.7436580  36.4744563   1.5363868  61.7820679  35.9408153   2.3300986
  61.2376873  35.9479768   0.9174845  74.1462849  48.9733953   4.4304526
  74.6981157  49.1365575   5.1953611  74.4869042  49.5638391   3.7584551
  69.1227342  31.3209103   5.0326411  69.1868669  32.1823934   4.6203808
  69.0594462  30.7083105   4.2998769  68.5979615  33.3932236   8.6799445
  69.2251653  33.0109313   9.2936969  67.7407533  33.1746438   9.0455137
  78.9973723  43.7995211  10.2853180  79.5413627  44.4125169   9.7908135
  78.4160568  44.3574789  10.8020193  77.2831236  46.9215929   1.4168208
  77.1582376  46.1205669   0.9079154  77.9410327  47.4162122   0.9282178
  68.9039404  33.2764661   0.5945348  68.1825990  33.8900629   0.4552822
  69.6932660  33.8122426   0.5161994  79.3466144  44.7224949   3.0447758
  78.3996480  44.6030300   2.9726085  79.6948918  43.8347447   3.1274020
  71.7065718  30.6119088   6.8686000  72.2300120  30.8581385   7.6312309
  71.4878051  31.4439123   6.4489137  76.3512578  44.5177665  -0.7547890
  76.2037540  43.5894373  -0.5740320  77.1766071  44.5397756  -1.2390814
  70.2174822  33.1695732  -4.8967397  70.5570895  33.6981654  -5.6188789
  70.6646943  33.5076138  -4.1208831  79.9546700  45.3406224   0.3316983
  80.8793247  45.1349085   0.1941434  79.7862003  45.0922625   1.2406325
  72.9118263  31.5532783   4.5535671  72.5715083  30.7540596   4.9556350
  72.2057269  31.8534494   3.9812504  73.5634735  28.6382096   3.0062994
  74.3860804  28.1642574   2.8841884  73.8072798  29.4172579   3.5061680
  71.0873313  35.3301216   0.8154972  70.9417894  35.6441519   1.7079254
  70.6098517  35.9486116   0.2625871  72.9469696  32.3203764   0.8635862
  72.9331265  31.4244857   0.5268160  73.6642124  32.3274428   1.4974148
  74.7995827  32.7541104   2.9088989  74.5413605  33.6758175   2.9073320
  74.2680867  32.3571539   3.5989453  65.5618976  37.8706561   3.7542633
  65.0172444  38.6466369   3.8862908  66.4398325  38.2177365   3.5961755
  72.3506592  31.2018144  -3.8676568  72.4722503  30.2734791  -3.6685681
  72.0608635  31.2156830  -4.7798253  66.3484997  36.9976457   6.6472790
  65.6066734  37.1459092   7.2337421  66.0277742  37.2584722   5.7839540
  74.2928660  46.5392435   6.4453180  74.6015787  46.2941582   7.3175880
  75.0904142  46.7439074   5.9572050  74.3149272  48.6930345  -1.3241443
  73.8754262  48.2006723  -0.6308586  75.0657389  48.1503312  -1.5649368
  66.7941611  44.8841886  -1.3216815  67.6199631  44.5845657  -1.7018172
  66.4435663  44.1149508  -0.8727026  71.7623144  44.2368354   0.7480858
  71.1403154  43.5739059   0.4483086  72.4328011  44.2629486   0.0654506
  64.9950216  42.8028212  -0.3627882  64.1582125  42.3750386  -0.5443880
  64.9673862  42.9960655   0.5742910  71.8347672  32.7150142  10.3413365
  71.8835827  33.5912265   9.9591134  72.3770186  32.1727535   9.7685008
  82.3202517  43.2591265   9.6214502  81.5298061  43.2415404   9.0819001
  82.0835872  43.7979559  10.3763538  82.4400393  40.1083731   6.9347230
  82.4898397  39.9433739   7.8762753  82.3314316  39.2410990   6.5445111
  71.3236651  42.7872277  -5.7760681  71.4724772  43.4707741  -6.4294008
  72.1303095  42.7677367  -5.2611225  79.7304155  36.0914659   8.2506537
  80.6314018  35.9521124   7.9590535  79.8052129  36.2569114   9.1904714
  74.0646960  33.4681514   7.0959723  73.1950270  33.7615080   6.8242312
  74.3006441  34.0521959   7.8166987  83.9418589  42.5280673   7.1789252
  83.6503398  42.8910653   8.0152713  83.3290721  41.8147681   7.0002584
  82.1905778  37.6513288   5.6469310  82.6659899  37.8440934   4.8388161
  81.2671343  37.7072473   5.4012693  69.0789284  38.8137455  -4.7699612
  68.8335326  37.9099785  -4.5719402  69.2485199  38.8154605  -5.7120134
  76.7685994  29.6861131   4.6125144  77.2867938  30.4222158   4.2871632
  76.4141127  29.9925124   5.4471903  80.8907447  34.5279048   3.8797615
  81.8424870  34.6277145   3.9009839  80.7210897  33.7357316   4.3895700
  78.9121826  31.6134631   4.0657016  78.3171758  31.8939644   3.3703505
  78.6271523  32.1028532   4.8373757  83.3695524  37.7485167   2.9939915
  83.3371845  36.8101168   3.1799599  83.9796148  37.8269204   2.2605740
  75.0917548  40.6698966  10.4967776  76.0120557  40.8477565  10.6907822
  75.0567131  39.7255012  10.3447475  64.3099713  35.8637560  -0.5778949
  63.9902497  35.0102868  -0.8704575  63.7633141  36.0786138   0.1779018
  68.0879620  38.5800001   3.1390557  68.3065630  39.5117109   3.1578591
  68.5005394  38.2207976   3.9245361  72.9607486  34.1533207  12.5293306
  72.8604213  35.1027564  12.4605397  72.7429028  33.8251446  11.6569376
  64.1787973  39.4840472   1.3914172  63.4851444  39.0694424   0.8784127
  64.9260964  39.5261008   0.7947591  72.8238756  37.5830346  11.3458368
  72.3405837  38.3830706  11.5522257  72.9099695  37.5938291  10.3925812
  66.0924715  39.4158725  -0.7319813  66.0695403  39.5146413  -1.6837930
  66.4025352  40.2623876  -0.4102647  68.7512093  41.4734880   3.3826801
  69.7055347  41.4418823   3.3156733  68.5524617  41.0125504   4.1977027
  69.3411475  40.0435996   5.9497599  70.1604364  40.5380075   5.9732436
  69.6148283  39.1267965   5.9215167  67.1062322  47.0154500   0.3996999
  66.9716790  46.2554901  -0.1665003  66.6894384  47.7395400  -0.0674212
  70.2631448  47.9123817   0.6115442  70.1463832  48.8569249   0.5094132
  69.4423894  47.6097378   1.0001241  64.5946390  34.3774130   6.6489796
  65.2405253  33.8673084   7.1377021  64.3863541  35.1142812   7.2233221
  77.1199782  41.4454978  12.1481937  77.9890941  41.6195630  11.7868572
  76.6406533  42.2649395  12.0257666  71.2885962  48.5652079   3.8271370
  72.1913209  48.5975689   4.1437865  71.0623332  47.6352530   3.8417706
  73.0439564  47.3183065   0.4881449  72.0935195  47.3184927   0.3745821
  73.3472050  46.5715800  -0.0282516  68.9343881  31.5241747  10.7464810
  69.7975342  31.1678552  10.9568135  68.3609291  31.1855642  11.4340215
  86.0701747  54.2605884   7.4474942  86.0590388  53.8658682   6.5755445
  86.2322386  53.5271956   8.0408713  82.7909008  57.0442995   6.3954126
  82.4998874  57.9488626   6.2800792  83.4265992  57.0859523   7.1098195
  83.7165215  54.4219844   2.9855485  84.3128787  54.1975866   2.2712448
  83.7740186  53.6804589   3.5880933  91.2567373  44.5291865   3.9908007
  90.9250698  45.3987276   3.7669222  90.6612987  44.2128149   4.6702037
  78.5620186  52.8251481   0.2584413  78.6912567  53.0785960   1.1723825
  77.8817637  53.4179189  -0.0610932  85.2236903  50.6676597   9.0136254
  84.4470237  51.2270517   9.0039119  85.8627466  51.1533380   9.5351124
  93.0157683  47.4503389   2.8479231  92.3732063  47.7435923   2.2019025
  92.5112612  47.3356310   3.6532427  83.4783275  53.4762050   8.5754221
  84.2197959  54.0147094   8.2989045  82.7720260  54.1028339   8.7325773
  88.9538615  55.6191190   7.1726382  89.3621971  55.1773601   6.4281015
  88.2315876  55.0443818   7.4260575  85.3069685  50.5563797   4.5459939
  86.1530880  50.9803211   4.6894588  85.2468322  49.8997422   5.2398502
  88.4569130  48.2168166   6.2041113  88.2130062  48.9710226   5.6675389
  88.7329060  48.5953513   7.0388360  88.0133822  47.3724599   1.7854951
  87.1518301  47.6705852   2.0771688  88.0396256  47.5894998   0.8535983
  82.2144639  50.6301698   9.3769531  81.5843299  51.3117979   9.6104928
  82.1080726  50.5184780   8.4322669  77.5089611  50.2973494   0.3035455
  76.7188665  50.5531023  -0.1724434  78.0000858  51.1121832   0.4087496
  85.2910024  57.1862777   5.2101446  85.3554457  57.6483184   6.0459618
  84.5820948  56.5560142   5.3383756  75.7927314  50.5503985   2.7350446
  76.0435352  51.4350995   3.0008022  76.3286862  50.3708586   1.9625538
  81.4925381  44.9322464  11.7394782  81.0992327  44.3788663  12.4142426
  82.3091522  45.2433043  12.1301299  84.4093342  46.3480343   9.3315039
  85.1503056  46.9487496   9.2519501  84.6411265  45.6057981   8.7733081
  79.5534680  51.5336710   7.6093268  79.4388195  50.6321968   7.9100367
  78.6979198  51.7800407   7.2578085  86.6326518  59.4754451   9.2080769
  86.1890372  58.6890829   8.8901673  87.2943732  59.6633601   8.5424660
  85.1880810  57.2701380   8.0785678  85.7209147  56.5089668   7.8484986
  84.6594891  56.9775032   8.8209833  88.3550505  42.3761446   3.6079320
  88.0114775  43.2663088   3.5318431  88.7229468  42.1863104   2.7448905
  87.4347046  44.7466101   1.5728553  86.9311841  44.7096236   0.7596359
  87.7277653  45.6558844   1.6325210  83.6789932  44.8304831   0.5794735
  84.5442928  44.6347640   0.2200625  83.7467440  44.6015183   1.5064092
  81.2852251  47.0607039  -2.0488898  81.8596003  46.8382220  -2.7815705
  81.8723233  47.1295733  -1.2960297  87.9625822  51.0127683   5.8078522
  88.3175210  51.2399156   6.6672987  88.6097954  51.3446059   5.1855777
  81.8565685  48.1204214   2.5924863  82.4965065  47.9792973   1.8947826
  81.0243216  47.8338727   2.2163465  78.8594302  48.0904539  -2.6302150
  79.1201119  49.0049872  -2.7392990  79.6811474  47.6228981  -2.4805538
  80.3319227  49.5042296   4.5396674  81.0042281  49.2959658   3.8909323
  79.5049014  49.3064382   4.1001906  86.2344799  46.1304237   6.5562335
  85.5872714  46.8294186   6.4626811  87.0045815  46.5640381   6.9238583
  89.6423597  56.3953089   9.6312888  89.4909103  56.1663641   8.7142972
  89.6328277  57.3523690   9.6444233  86.4108933  53.9685002   4.6159155
  87.3400993  54.1196161   4.4428122  85.9899963  54.0569022   3.7607801
  80.7346724  52.7784899   5.2999111  80.5966522  52.0465138   5.9010650
  81.6451648  52.6893799   5.0183299  83.3629025  52.4904858   4.7882791
  84.0728644  51.8498050   4.7469409  83.3198333  52.7417753   5.7108972
  82.0757959  49.4770076   6.6078430  81.5395316  49.0260814   7.2600027
  81.4874667  49.6115985   5.8648895  73.0062358  53.7235887  -0.7353599
  73.6933398  53.4097617  -1.3232584  72.8510487  54.6277252  -1.0086347
  77.8097080  48.6126084   3.6931425  77.7255269  48.0051753   2.9581835
  76.9879787  49.1035102   3.6940921  82.3944961  59.6994525   5.8828322
  83.0954421  60.3331008   6.0357717  81.9240076  60.0409257   5.1223962
  90.1946247  52.2539133   3.7080873  89.5417698  52.5015040   3.0533326
  90.5726627  51.4403271   3.3743350  86.2433820  52.9958944  10.1946910
  85.5674457  52.8953073  10.8649285  87.0661454  52.8398157  10.6582907
  77.9912679  59.2330880   2.8159425  78.5766116  58.4874568   2.9487329
  77.7937518  59.5434837   3.6996089  72.5830334  51.8036480   1.5363868
  72.6214434  51.2700071   2.3300986  72.0770627  51.2771686   0.9174845
  79.9621097  46.6501021   5.0326411  80.0262423  47.5115852   4.6203808
  79.8988217  46.0375023   4.2998769  79.4373369  48.7224153   8.6799445
  80.0645408  48.3401231   9.2936969  78.5801288  48.5038355   9.0455137
  89.8367478  59.1287129  10.2853180  90.3807382  59.7417087   9.7908135
  89.2554322  59.6866707  10.8020193  79.7433159  48.6056579   0.5945348
  79.0219745  49.2192547   0.4552822  80.5326415  49.1414344   0.5161994
  82.5459472  45.9411006   6.8686000  83.0693874  46.1873302   7.6312309
  82.3271806  46.7731040   6.4489137  83.7512017  46.8824701   4.5535671
  83.4108838  46.0832514   4.9556350  83.0451024  47.1826412   3.9812504
  84.4028489  43.9674013   3.0062994  85.2254559  43.4934491   2.8841884
  84.6466553  44.7464497   3.5061680  81.9267068  50.6593134   0.8154972
  81.7811649  50.9733437   1.7079254  81.4492272  51.2778034   0.2625871
  83.7863451  47.6495682   0.8635862  83.7725020  46.7536775   0.5268160
  84.5035879  47.6566346   1.4974148  85.6389582  48.0833022   2.9088989
  85.3807359  49.0050093   2.9073320  85.1074622  47.6863457   3.5989453
  76.4012730  53.1998478   3.7542633  75.8566198  53.9758286   3.8862908
  77.2792080  53.5469283   3.5961755  77.1878752  52.3268374   6.6472790
  76.4460488  52.4751010   7.2337421  76.8671496  52.5876640   5.7839540
  82.6741426  48.0442059  10.3413365  82.7229582  48.9204182   9.9591134
  83.2163941  47.5019453   9.7685008  93.1596272  58.5883183   9.6214502
  92.3691816  58.5707322   9.0819001  92.9229627  59.1271476  10.3763538
  93.2794147  55.4375649   6.9347230  93.3292152  55.2725657   7.8762753
  93.1708070  54.5702908   6.5445111  90.5697909  51.4206577   8.2506537
  91.4707772  51.2813042   7.9590535  90.6445884  51.5861032   9.1904714
  84.9040715  48.7973432   7.0959723  84.0344024  49.0906998   6.8242312
  85.1400195  49.3813877   7.8166987  87.6079749  45.0153049   4.6125144
  88.1261692  45.7514076   4.2871632  87.2534881  45.3217042   5.4471903
  91.7301201  49.8570965   3.8797615  92.6818624  49.9569063   3.9009839
  91.5604652  49.0649234   4.3895700  89.7515581  46.9426549   4.0657016
  89.1565513  47.2231561   3.3703505  89.4665277  47.4320449   4.8373757
  85.9311302  55.9990884  10.4967776  86.8514312  56.1769483  10.6907822
  85.8960885  55.0546929  10.3447475  75.1493467  51.1929478  -0.5778949
  74.8296252  50.3394786  -0.8704575  74.6026895  51.4078056   0.1779018
  78.9273375  53.9091919   3.1390557  79.1459385  54.8409027   3.1578591
  79.3399149  53.5499893   3.9245361  83.8001240  49.4825125  12.5293306
  83.6997967  50.4319481  12.4605397  83.5822782  49.1543363  11.6569376
  75.0181727  54.8132389   1.3914172  74.3245199  54.3986342   0.8784127
  75.7654718  54.8552926   0.7947591  83.6632510  52.9122263  11.3458368
  83.1799592  53.7122623  11.5522257  83.7493449  52.9230208  10.3925812
  79.5905848  56.8026798   3.3826801  80.5449101  56.7710740   3.3156733
  79.3918371  56.3417422   4.1977027  80.1805230  55.3727914   5.9497599
  80.9998119  55.8671993   5.9732436  80.4542038  54.4559882   5.9215167
  75.4340144  49.7066048   6.6489796  76.0799008  49.1965002   7.1377021
  75.2257295  50.4434730   7.2233221  87.9593536  56.7746895  12.1481937
  88.8284696  56.9487548  11.7868572  87.4800288  57.5941312  12.0257666
  79.7737635  46.8533665  10.7464810  80.6369097  46.4970470  10.9568135
  79.2003046  46.5147560  11.4340215  92.3319136  60.2614382  11.7394782
  91.9386081  59.7080580  12.4142426  93.1485276  60.5724960  12.1301299
  90.6131390  62.1825583  10.7464810  91.4762851  61.8262388  10.9568135
  90.0396800  61.8439478  11.4340215   2.0615617  76.9755363  65.7799171
   1.3079325  76.4062761  65.6243176   2.1963158  76.9418027  66.7269806
   2.4722032  77.1330973  68.5119415   3.2025421  76.8716261  69.0727119
   1.8628978  76.3959695  68.5521483   1.6183484  89.2024856  65.0053883
   2.4046573  88.7844279  64.6544300   1.8822188  90.1070948  65.1735532
   7.0191911  89.1400089  65.9086862   7.7517083  88.5699306  66.1424691
   6.2631267  88.7521690  66.3493367   4.5417331  82.8521664  70.3681470
   4.2100656  83.7217074  70.1442685   3.9462945  82.5357948  71.0475501
   4.4345995  87.5716750  67.4474820   3.5262872  87.5032158  67.1533581
   4.3833590  88.0488695  68.2756646   6.3007641  85.7733188  69.2252694
   5.6582021  86.0665721  68.5792489   5.7962569  85.6586108  70.0305891
   3.9547805  89.5196361  59.9138554   4.8665661  89.7523748  59.7386251
   3.4457452  90.1033406  59.3513632   1.7419088  86.5397964  72.5814577
   1.4980020  87.2940025  72.0448852   2.0179018  86.9183312  73.4161824
  12.9009371  92.3047281  65.7799171  12.1473080  91.7354679  65.6243176
  13.0356913  92.2709945  66.7269806   1.6400463  80.6991245  69.9852784
   1.2964732  81.5892886  69.9091895   2.0079426  80.5092902  69.1222369
   1.3937049  88.5626948  60.3185000   1.0887185  88.8773097  61.1695143
   2.3467491  88.6408368  60.3612333   3.6281786  91.2710564  65.1348942
   4.1413667  91.9040556  65.6370652   4.2783010  90.6711760  64.7692302
   0.8897664  90.1451436  62.5109963   1.6369483  90.6572833  62.2017085
   1.1589254  89.8235488  63.3714357   3.3376501  87.1808552  64.4928752
   2.5999258  86.6685938  64.8238995   3.5903275  86.7408934  63.6812029
   3.4388129  79.9584804  65.0870522   3.7447006  79.0982167  64.7996437
   4.1640734  80.5502424  64.8869516   1.2475780  89.3357481  72.1851985
   1.6025168  89.5628954  73.0446451   1.8947911  89.6675858  71.5629241
   1.2670752  85.4209446  65.4375084   1.7639451  84.6679408  65.1176154
   0.4957733  85.4573762  64.8718293   9.1200509  91.1249811  67.0793375
   9.1090386  92.0074527  66.7087308   8.2517889  90.7721362  66.8847912
   5.7373084  90.0198452  63.5463541   6.2033536  90.8526444  63.4723844
   6.1880584  89.5543434  64.2508800   3.7089747  82.3879039  67.5854443
   2.7952826  82.6183266  67.7536649   4.1382848  82.4717483  68.4368475
   3.4796205  90.5768931  70.0854337   2.8267655  90.8244839  69.4306789
   3.8576585  89.7633069  69.7516814   9.7225119  92.2750031  63.6842838
  10.1656265  91.5257356  63.2861961   8.8451630  92.2660167  63.3016570
   3.8547867  89.7436376  74.6280001   4.7557730  89.6042841  74.3363998
   3.9295842  89.9090831  75.5678178   6.3149490  91.3035004  72.0242773
   6.7903611  91.4962650  71.2161625   5.3915055  91.3594190  71.7786157
   0.8929706  83.3382847  70.9898607   1.4111650  84.0743874  70.6645096
   0.5384839  83.6446841  71.8245366   1.1442301  79.7583130  66.5099504
   1.4244054  79.0906319  67.1359930   1.9292907  79.9512226  65.9974168
   5.0151159  88.1800764  70.2571079   5.9668582  88.2798862  70.2783303
   4.8454609  87.3879033  70.7669163   3.0365538  85.2656347  70.4430480
   2.4415470  85.5461360  69.7476969   2.7515235  85.7550248  71.2147221
   7.4939237  91.4006884  69.3713379   7.4615557  90.4622884  69.5573062
   8.1039860  91.4790920  68.6379204   7.6433725  88.1917927  69.4171662
   7.1272774  87.4076384  69.2301591   8.5273674  87.8636644  69.5818181
   5.3044452  81.9358943  65.3767474   5.1069273  81.6274031  66.2610806
   5.9144158  82.6620582  65.5065404  13.3115787  92.4622890  68.5119415
  14.0419175  92.2008179  69.0727119  12.7022732  91.7251612  68.5521483
  11.3931084  90.6030753  69.1093867  10.6664247  90.4686718  68.5010358
  10.9778371  90.9107582  69.9150585   1.0618099  81.8167850  63.1264006
   1.6149137  82.2363303  63.7854029   1.2988185  80.8903598  63.1686962
   4.4396906  83.9268375  62.6342670   3.8595575  84.5853179  62.2520723
   4.1732838  83.1045719  62.2230088   2.8900472  83.3273432  64.8363990
   3.3900251  83.4389967  64.0278309   3.5336080  83.0234485  65.4764799
   3.2221784  86.0868465  61.6899018   2.3347639  86.3718116  61.4719213
   3.6375773  85.9262228  60.8426295   6.5736320  86.1114986  65.4053358
   7.3496710  86.6011438  65.6777974   5.8484454  86.5373040  65.8625227
   9.0108879  86.8242605  66.4627298   9.6053369  86.5838341  65.7520606
   9.0835462  86.1049736  67.0900835   7.0067613  87.3912733  62.7299428
   6.7504548  86.9909369  63.5607636   6.3820482  88.1056527  62.6049567
  11.3179951  90.1308806  65.2370719  10.7579509  90.2001995  66.0102281
  10.7123455  89.9549791  64.5170216  11.8939586  94.2170586  63.0333093
  11.1271982  93.6629072  63.1789775  12.3050291  94.2892454  63.8947245
   2.0615618  53.9817485  52.5044478   1.3079327  53.4124884  52.3488482
   2.1963159  53.9480150  53.4515112   2.4722033  54.1393095  55.2364722
   3.2025422  53.8778384  55.7972425   1.8628979  53.4021817  55.2766790
   2.0642217  68.4835525  54.6545982   2.7020626  68.3642272  53.9509322
   1.9463059  69.4316369  54.7133934   1.6183485  66.2086979  51.7299190
   2.4046574  65.7906402  51.3789607   1.8822189  67.1133071  51.8980838
   1.7893562  71.6459829  46.4287847   1.1539395  71.7194456  47.1408751
   1.4590969  72.2353428  45.7506926   7.0191912  66.1462212  52.6332168
   7.7517084  65.5761429  52.8669998   6.2631268  65.7583812  53.0738674
   4.5417332  59.8583786  57.0926777   4.2100657  60.7279197  56.8687992
   3.9462946  59.5420070  57.7720807   1.0348852  72.0596332  56.4922690
   0.7349575  72.9621371  56.3838497   0.6899912  71.7928515  57.3443843
   4.4345996  64.5778872  54.1720127   3.5262873  64.5094281  53.8778888
   4.3833592  65.0550817  55.0001952   6.3007642  62.7795311  55.9498001
   5.6582022  63.0727844  55.3037796   5.7962571  62.6648231  56.7551198
   3.9547806  66.5258484  46.6383860   4.8665662  66.7585871  46.4631558
   3.4457453  67.1095528  46.0758939   2.2388574  70.9483112  60.2745153
   2.6471930  70.5065522  59.5299785   1.5165835  70.3735739  60.5279346
   2.5617388  71.5084302  54.0297442   1.9326251  71.6730016  53.3273509
   2.1743050  71.9225912  54.8008406   6.4406620  72.4438740  51.3841805
   5.7557658  72.8237642  50.8338839   6.5250469  73.0534067  52.1173753
   1.7419089  63.5460087  59.3059883   1.4980021  64.3002147  58.7694159
   2.0179019  63.9245434  60.1407130   3.6957552  70.0898699  57.9837149
   3.9074447  70.7330459  57.3071530   3.6487300  69.2561016  57.5159079
   4.8103380  72.9670655  56.1559506   5.6320823  72.5650842  55.8742188
   4.8065783  72.8638889  57.1075622  12.9009373  69.3109403  52.5044478
  12.1473081  68.7416801  52.3488482  13.0356914  69.2772068  53.4515112
   2.0157715  75.0849172  60.3380940   1.9976191  75.9058053  59.8461210
   2.9377635  74.9603247  60.5631082   1.6400464  57.7053367  56.7098091
   1.2964734  58.5955009  56.6337201   2.0079427  57.5155025  55.8467676
   1.6050747  67.6961978  45.2170526   1.0897370  68.4666583  45.4558913
   1.3328055  67.0227115  45.8403587   6.5785021  70.4494333  47.1523699
   5.8014464  70.1105493  46.7078861   7.2576502  70.4546956  46.4778664
   1.3937050  65.5689071  47.0430307   1.0887186  65.8835220  47.8940450
   2.3467492  65.6470490  47.0857640   4.8176328  69.9228314  53.8090307
   4.1600003  70.6127576  53.8970436   5.6216727  70.3124746  54.1524293
   3.6281787  68.2772687  51.8594249   4.1413669  68.9102679  52.3615959
   4.2783011  67.6773883  51.4937609   0.8897666  67.1513558  49.2355270
   1.6369484  67.6634955  48.9262392   1.1589255  66.8297611  50.0959663
   4.3943583  73.2578688  49.9873392   3.9405910  72.4169598  50.0438582
   3.7637550  73.8940087  50.3248172   3.3376503  64.1870674  51.2174059
   2.5999259  63.6748061  51.5484302   3.5903276  63.7471056  50.4057336
   2.8376522  75.0955185  50.9223210   3.1299497  75.6560242  50.2035575
   3.3475143  75.3883746  51.6776369   3.4388130  56.9646926  51.8115828
   3.7447007  56.1044290  51.5241743   4.1640735  57.5564547  51.6114822
   1.2475781  66.3419604  58.9097292   1.6025169  66.5691077  59.7691758
   1.8947913  66.6737981  58.2874547   6.9773518  69.4638040  49.6146621
   6.8391417  69.6539636  48.6867810   6.6209737  70.2257422  50.0714672
   7.8658447  71.5738267  57.1590778   8.0594338  72.4784078  57.4050053
   7.7659066  71.1145686  57.9929363   2.9273556  71.7245010  62.7331659
   2.7759063  71.4955562  61.8161742   2.9178236  72.6815611  62.7463004
   2.9811631  70.0465224  43.1502360   2.3640802  69.3212052  43.0535413
   2.5128120  70.8074585  42.8069434   4.6365763  74.7564133  60.8108140
   4.5778309  74.0723353  60.1438724   5.0385281  75.4983123  60.3588766
   4.6383170  72.7203717  59.0422120   3.7509949  72.3829638  59.1648519
   5.2081721  71.9886748  59.2790886   1.2670753  62.4271568  52.1620390
   1.7639453  61.6741531  51.8421461   0.4957735  62.4635885  51.5963600
   9.1200511  68.1311934  53.8038682   9.1090387  69.0136649  53.4332615
   8.2517890  67.7783485  53.6093219   2.3500534  71.1843256  49.7358814
   1.4156813  71.3044718  49.5663518   2.5277202  70.2815722  49.4718824
   5.7373085  67.0260575  50.2708848   6.2033537  67.8588566  50.1969150
   6.1880586  66.5605556  50.9754106   3.8049316  73.3704396  47.2695000
   4.0809160  73.2560991  48.1788874   2.9353815  72.9721881  47.2307173
   3.7089748  59.3941162  54.3099749   2.7952828  59.6245389  54.4781956
   4.1382849  59.4779606  55.1613782   3.4796206  67.5831054  56.8099643
   2.8267657  67.8306961  56.1552096   3.8576586  66.7695192  56.4762120
   0.7745546  76.5458932  48.1742862   1.3033312  76.0351387  47.5613024
   1.0373765  76.2301462  49.0388395   3.1217437  74.4579050  63.3871951
   3.6657341  75.0709008  62.8926905   2.5404282  75.0158628  63.9038964
   1.4074950  77.5799768  54.5186978   1.2826089  76.7789508  54.0097924
   2.0654041  78.0745961  54.0300948   3.4709858  75.3808788  56.1466529
   2.5240194  75.2614139  56.0744855   3.8192631  74.4931286  56.2292790
   4.0790413  75.9990063  53.4335754   5.0036961  75.7932924  53.2960205
   3.9105717  75.7506464  54.3425095   3.8685729  76.5175730  48.7897845
   4.0422607  75.9522153  48.0371697   4.3614621  77.3176625  48.6077335
   9.7225121  69.2812153  50.4088145  10.1656267  68.5319479  50.0107268
   8.8451631  69.2722290  50.0261877   4.8560902  75.8342495  45.8894743
   5.5511806  76.4549187  46.1082058   5.1984052  74.9837846  46.1647121
   6.7552325  73.2842200  47.4182074   7.2803649  73.6229473  46.6931394
   6.6674678  72.3489216  47.2345209   6.4446231  73.9175104  62.7233272
   5.6541775  73.8999243  62.1837771   6.2079586  74.4563398  63.4782309
   6.5644106  70.7667570  60.0366000   6.6142111  70.6017578  60.9781523
   6.4558029  69.8994829  59.6463881   3.8547868  66.7498498  61.3525307
   4.7557731  66.6104963  61.0609305   3.9295843  66.9152953  62.2923485
   8.0662303  73.1864512  60.2808022   7.7747111  73.5494492  61.1171483
   7.4534434  72.4731520  60.1021354   9.2657985  70.7517392  52.8010592
  10.1004877  71.1907196  52.9648153   9.4017114  70.2756045  51.9818838
   6.3149491  68.3097126  58.7488080   6.7903613  68.5024773  57.9406931
   5.3915057  68.3656312  58.5031464   0.8929708  60.3444970  57.7143914
   1.4111652  61.0805997  57.3890402   0.5384840  60.6508963  58.5490673
   1.1442302  56.7645253  53.2344811   1.4244056  56.0968442  53.8605237
   1.9292909  56.9574348  52.7219474   5.0151160  65.1862887  56.9816386
   5.9668583  65.2860984  57.0028610   4.8454611  64.3941155  57.4914470
   3.0365540  62.2718470  57.1675787   2.4415472  62.5523482  56.4722275
   2.7515236  62.7612371  57.9392528   2.1673030  76.2241397  45.9278419
   3.1003703  76.1586958  46.1311295   2.0796243  77.0597663  45.4692952
   4.7961047  75.5407267  42.8882367   4.7174678  75.2067131  43.7818125
   5.6170714  76.0329035  42.8873839   7.4939238  68.4069006  56.0958685
   7.4615558  67.4685007  56.2818369   8.1039862  68.4853043  55.3624510
   7.6433726  65.1980050  56.1416968   7.1272775  64.4138506  55.9546897
   8.5273675  64.8698766  56.3063488   5.3044453  58.9421065  52.1012781
   5.1069274  58.6336153  52.9856113   5.9144159  59.6682704  52.2310711
  13.3115788  69.4685013  55.2364722  14.0419176  69.2070301  55.7972425
  12.7022733  68.7313735  55.2766790  11.3931085  67.6092876  55.8339173
  10.6664248  67.4748841  55.2255665  10.9778372  67.9169704  56.6395891
   1.0618100  58.8229972  49.8509312   1.6149139  59.2425426  50.5099336
   1.2988186  57.8965720  49.8932268   4.4396907  60.9330497  49.3587977
   3.8595576  61.5915301  48.9766029   4.1732840  60.1107842  48.9475394
   2.8900473  60.3335555  51.5609297   3.3900252  60.4452090  50.7523616
   3.5336081  60.0296608  52.2010106   3.2221785  63.0930588  48.4144325
   2.3347640  63.3780238  48.1964520   3.6375774  62.9324351  47.5671602
   6.5736321  63.1177109  52.1298664   7.3496711  63.6073561  52.4023281
   5.8484455  63.5435163  52.5870534   9.0108880  63.8304728  53.1872605
   9.6053371  63.5900464  52.4765913   9.0835464  63.1111858  53.8146141
   2.3664999  72.8575262  42.5092345   3.0700849  73.0625265  43.1250001
   1.6427647  73.4252024  42.7741429   3.1962809  68.6085124  48.6294615
   3.1398010  69.0653675  47.7902248   3.7491151  67.8475808  48.4517458
   7.0067615  64.3974855  49.4544735   6.7504549  63.9971491  50.2852942
   6.3820483  65.1118649  49.3294874  11.3179953  67.1370929  51.9616026
  10.7579511  67.2064118  52.7347588  10.7123456  66.9611913  51.2415522
   4.2751696  73.2957792  44.5590805   5.1097300  72.8638990  44.3768280
   4.1136039  73.1239805  45.4867700   3.9297588  69.7989905  45.9247144
   3.8746392  69.6334176  44.9835588   3.3043643  70.5065938  46.0809334
   1.2443495  72.1038817  65.2500707   2.1134655  72.2779469  64.8887342
   0.7650247  72.9233234  65.1276436  12.9035971  83.8127443  54.6545982
  13.5414381  83.6934190  53.9509322  12.7856814  84.7608287  54.7133934
   9.7125677  83.7654871  54.5907506   9.3744189  83.6495935  53.7028041
  10.5815446  83.3646036  54.5708513   5.5712493  85.6190347  50.5804397
   5.0077358  85.5280284  49.8120685   5.4564888  84.7990252  51.0606890
  10.1945460  84.9189722  60.5493712  10.1834101  84.5242521  59.6774216
  10.3566100  84.1855795  61.1427483   3.1176925  87.1141539  53.4188618
   3.9098217  86.7732363  53.0034917   3.3573575  87.2236514  54.3390771
  11.1512052  89.2861315  45.8918862  10.5000031  89.8715395  45.5052876
  11.9456415  89.8167510  45.9513900   5.0767679  86.3750452  46.2905997
   5.8498555  85.8279439  46.1518872   5.4293078  87.2394701  46.5020458
   6.9152721  87.7026834  59.4972896   6.6242587  88.6072465  59.3819562
   7.5509706  87.7443362  60.2116966   7.8408928  85.0803683  56.0874256
   8.4372501  84.8559705  55.3731219   7.8983900  84.3388428  56.6899703
   7.4133957  82.5343118  43.9224447   7.6659477  82.0124639  43.1607910
   6.4758516  82.3709264  44.0251130  12.4577240  81.5378896  51.7299190
  13.2440329  81.1198320  51.3789607  12.7215944  82.4424989  51.8980838
  12.6287317  86.9751747  46.4287847  11.9933150  87.0486373  47.1408751
  12.2984723  87.5645346  45.7506926  17.8585667  81.4754130  52.6332168
  18.5910839  80.9053347  52.8669998  17.1025022  81.0875730  53.0738674
   7.1330245  84.4371224  46.1248822   7.0166504  83.7616127  46.7929906
   7.2432505  83.9503598  45.3080975   9.4761786  83.8981371  49.8295511
   9.1119994  83.3711992  50.5408432  10.3328902  83.5079840  49.6561996
  15.3811087  75.1875704  57.0926777  15.0494412  76.0571115  56.8687992
  14.7856700  74.8711988  57.7720807   9.1167273  78.9271271  44.8256859
   9.2841676  79.7951507  45.1927330   8.9264442  79.0898553  43.9018149
  11.8742607  87.3888250  56.4922690  11.5743330  88.2913289  56.3838497
  11.5293666  87.1220433  57.3443843   5.3255088  83.8402047  52.5259394
   4.4005584  83.7078261  52.7337086   5.5739501  84.6196266  53.0229337
  15.2739750  79.9070790  54.1720127  14.3656628  79.8386198  53.8778888
  15.2227346  80.3842735  55.0001952   9.0956494  81.3828928  45.8103526
   8.9756119  81.8285979  46.6489006   8.4009083  81.7314246  45.2517064
   2.6863899  83.4835320  53.3603183   2.8156280  83.7369799  54.2742595
   2.0061350  84.0763028  53.0407838   9.3480616  81.3260436  62.1155024
   8.5713950  81.8854356  62.1057889   9.9871179  81.8117219  62.6369894
  17.1401397  78.1087228  55.9498001  16.4975777  78.4019762  55.3037796
  16.6356325  77.9940149  56.7551198  14.7941560  81.8550402  46.6383860
  15.7059416  82.0877788  46.4631558  14.2851207  82.4387446  46.0758939
   7.6026988  84.1345889  61.6772991   8.3441673  84.6730933  61.4007815
   6.8963974  84.7612178  61.8344543  13.0782328  86.2775029  60.2745153
  13.4865684  85.8357440  59.5299785  12.3559590  85.7027657  60.5279346
   9.4313398  81.2147636  57.6478710  10.2774593  81.6387050  57.7913359
   9.3712036  80.5581260  58.3417273  13.4011143  86.8376220  54.0297442
  12.7720005  87.0021934  53.3273509  13.0136805  87.2517830  54.8008406
  17.2800375  87.7730658  51.3841805  16.5951413  88.1529559  50.8338839
  17.3644224  88.3825985  52.1173753  12.5812843  78.8752005  59.3059883
  12.3373775  79.6294065  58.7694159  12.8572774  79.2537352  60.1407130
  14.5351306  85.4190617  57.9837149  14.7468201  86.0622377  57.3071530
  14.4881054  84.5852933  57.5159079  12.1377535  78.0308438  54.8873721
  11.2762014  78.3289691  55.1790459  12.1639970  78.2478836  53.9554754
   8.9539105  86.5750628  51.2947527   9.4177450  86.8538331  50.5052149
   8.6895903  85.6734073  51.1120617   5.8463186  86.1222110  54.2327290
   6.4164543  86.5509378  53.5944774   6.4371297  85.8404694  54.9311476
   7.8907991  82.6973780  48.1037092   8.5932034  83.1494824  48.5711018
   7.5588619  82.0557599  48.7316985   6.3388352  81.2885537  62.4788301
   5.7087013  81.9701818  62.7123698   6.2324440  81.1768619  61.5341440
   1.6333325  80.9557333  53.4054225   0.8432379  81.2114862  52.9294336
   2.1244572  81.7705671  53.5106266  15.6497134  88.2962572  56.1559506
  16.4714578  87.8942760  55.8742188  15.6459537  88.1930806  57.1075622
   3.5848070  81.3201912  50.3637702   2.7879233  81.4320607  50.8821198
   3.3573662  81.6588565  49.4978593   9.4153738  87.8446616  58.3120217
   9.4798170  88.3067023  59.1478389   8.7064661  87.2143981  58.4402527
  23.7403127  84.6401321  52.5044478  22.9866836  84.0708719  52.3488482
  23.8750668  84.6063985  53.4515112   9.1301755  89.5114723  48.1799197
   8.9947430  90.3566259  48.6084045   9.6711568  89.7134001  47.4165131
   5.6169095  75.5906303  64.8413552   5.2236040  75.0372502  65.5161197
   6.4335235  75.9016881  65.2320070   2.5831153  87.0290161  48.7527122
   3.0955673  87.8233411  48.9032687   3.2353865  86.3316452  48.6860724
   4.3926037  90.1455917  50.8349875   4.5692666  91.0673882  50.6470859
   5.1882871  89.8314337  51.2644255   8.5337056  77.0064182  62.4333809
   9.2746769  77.6071335  62.3538271   8.7654979  76.2641820  61.8751851
   3.6778394  82.1920549  60.7112039   3.5631909  81.2905807  61.0119137
   2.8222912  82.4384246  60.3596855  10.7570232  90.1338290  62.3099539
  10.3134086  89.3474668  61.9920444  11.4187445  90.3217440  61.6443430
   5.5157353  91.6634091  56.8360218   6.0664778  91.5351155  56.0637212
   4.6768829  91.9628980  56.4855110  12.8551470  90.4141090  60.3380940
  12.8369945  91.2349971  59.8461210  13.7771390  90.2895165  60.5631082
   9.3124524  87.9285219  61.1804449   9.8452861  87.1673507  60.9503757
   8.7838605  87.6358871  61.9228603  12.4794219  73.0345285  56.7098091
  12.1358488  73.9246927  56.6337201  12.8473181  72.8446943  55.8467676
   0.5480069  85.3578815  49.5286693   1.3855291  85.7675824  49.3120400
   0.7258337  84.4178258  49.4986887  12.4444502  83.0253896  45.2170526
  11.9291125  83.7958501  45.4558913  12.1721810  82.3519032  45.8403587
  10.0291613  77.8703597  50.2755764   9.1733209  77.4810447  50.0961403
  10.4418564  77.9495558  49.4155550  11.5590759  75.4049940  54.6747324
  11.0555555  75.3680075  53.8615129  11.8521366  76.3142683  54.7343980
   7.8033645  75.4888670  53.6813506   8.6686642  75.2931479  53.3219395
   7.8711154  75.2599022  54.6082862  17.4178776  85.7786251  47.1523699
  16.6408218  85.4397410  46.7078861  18.0970257  85.7838874  46.4778664
  12.2330805  80.8980988  47.0430307  11.9280940  81.2127137  47.8940450
  13.1861247  80.9762408  47.0857640  10.6777237  87.0571212  48.6923261
  10.1498598  86.3223971  48.3796498  10.1764739  87.8345888  48.4463229
  15.6570083  85.2520232  53.8090307  14.9993757  85.9419493  53.8970436
  16.4610482  85.6416664  54.1524293   5.4095964  77.7190878  51.0529872
   5.9839716  77.4966059  50.3203065   5.9966947  77.7879572  51.8058474
  14.4675541  83.6064605  51.8594249  14.9807423  84.2394597  52.3615959
  15.1176765  83.0065800  51.4937609   5.7365551  79.7495339  45.0725758
   4.9002864  80.0870025  45.3935032   5.5970321  79.6144319  44.1352895
   7.7118632  74.5932127  49.7804942   7.0583044  74.2781144  49.1561557
   7.6699106  73.9707867  50.5064765   8.8229837  84.8751422  41.6958234
   7.9156898  84.6440675  41.8949383   9.3200869  84.0789041  41.8832215
  11.7297916  93.5848929  44.6154920  11.0559614  93.8880626  45.2239878
  12.1163738  94.3878009  44.2660377  10.9456372  81.0814060  54.1052589
  10.0278934  81.3029007  53.9474277  11.3616516  81.1560371  53.2464297
  11.7291420  82.4805476  49.2355270  12.4763239  82.9926873  48.9262392
  11.9983010  82.1589529  50.0959663  10.0018070  84.9764017  46.2182224
   9.0929289  84.6923049  46.3154694  10.0313154  85.3963095  45.3585531
  15.2337338  88.5870606  49.9873392  14.7799665  87.7461516  50.0438582
  14.6031304  89.2232005  50.3248172  14.1770257  79.5162592  51.2174059
  13.4393014  79.0039978  51.5484302  14.4297031  79.0762974  50.4057336
  13.6770277  90.4247103  50.9223210  13.9693251  90.9852160  50.2035575
  14.1868897  90.7175664  51.6776369  14.2781884  72.2938844  51.8115828
  14.5840761  71.4336208  51.5241743  15.0034489  72.8856464  51.6114822
   8.5502964  82.5892637  52.3192019   8.6051574  81.6366474  52.2434496
   7.7394166  82.7452076  52.8033318   9.6994158  86.5172760  43.5570303
   9.2613588  85.8008619  43.0975940  10.4404599  86.7448875  42.9955394
   6.4895324  81.2069697  50.0782398   5.6763190  81.5063868  50.4847590
   6.9854318  80.8125386  50.7956880   8.6403902  91.2027454  52.0116663
   8.5980081  91.4288300  51.0825195   9.5566601  90.9690829  52.1602464
  12.0869536  81.6711521  58.9097292  12.4418924  81.8982995  59.7691758
  12.7341667  82.0029898  58.2874547  17.8167273  84.7929957  49.6146621
  17.6785171  84.9831553  48.6867810  17.4603492  85.5549340  50.0714672
   5.9809399  78.7788053  55.6943633   6.6208778  78.6376812  54.9966596
   5.1486929  78.4922566  55.3182235  17.8436652  86.8606484  54.6257893
  18.2773159  86.7681773  55.4740947  18.5568233  86.8363985  53.9877909
   6.7569703  88.0790483  51.8078626   7.5510301  87.5840803  51.6061201
   6.0461395  87.5508346  51.4446331  11.5764547  90.4608578  56.1590993
  11.6301570  91.0299515  56.9268709  10.7079329  90.6310463  55.7945030
   3.0652466  82.2233565  47.8838378   2.1350054  82.1618020  48.1008340
   3.1609938  81.7009517  47.0875020   2.9838015  78.7488377  50.4716620
   3.2444833  79.6633711  50.3625780   3.8055188  78.2812820  50.6213233
   4.4562941  80.1626135  57.6415444   5.1285994  79.9543497  56.9928093
   3.6292727  79.9648221  57.2020677  18.7052202  86.9030185  57.1590778
  18.8988092  87.8075996  57.4050053  18.6052820  86.4437604  57.9929363
  10.3588513  76.7888076  59.6581105   9.7116428  77.4878025  59.5645582
  11.1289528  77.2224220  60.0257354  13.7667311  87.0536928  62.7331659
  13.6152817  86.8247479  61.8161742  13.7571990  88.0107529  62.7463004
  10.5352647  84.6268840  57.7177925  11.4644707  84.7780000  57.5446892
  10.1143677  84.7152861  56.8626572   9.3340979  88.6519505  55.4876463
   9.1952064  88.2838289  56.3602401   8.5455575  89.1667144  55.3160420
  10.8846194  88.0301108  52.8765300  10.5496027  87.9901878  53.7722950
  10.3850140  87.3645824  52.4035711   4.8590438  83.4368738  58.4017882
   4.7210236  82.7048976  59.0029421   5.7695361  83.3477638  58.1202069
  13.8205386  85.3757142  43.1502360  13.2034556  84.6503970  43.0535413
  13.3521874  86.1366502  42.8069434   7.4872739  83.1488697  57.8901561
   8.1972357  82.5081889  57.8488180   7.4442047  83.4001592  58.8127742
  15.4759517  90.0856050  60.8108140  15.4172063  89.4015270  60.1438724
  15.8779036  90.8275040  60.3588766   6.2001673  80.1353915  59.7097201
   5.6639030  79.6844653  60.3618797   5.6118381  80.2699824  58.9667665
   5.6103931  79.5942566  42.2723664   4.7333398  79.4731367  41.9085911
   6.0861685  78.8028645  42.0202553  15.4776925  88.0495634  59.0422120
  14.5903703  87.7121556  59.1648519  16.0475476  87.3178665  59.2790886
   1.9340794  79.2709923  56.7950195   1.8498983  78.6635592  56.0600605
   1.1123500  79.7618941  56.7959692   9.0078078  92.7097087  56.0083363
   8.9348249  93.5152058  56.5202668   8.5655471  92.9089052  55.1831385
   8.7967858  91.9468857  49.5186185   8.0135379  92.4890537  49.6124409
   9.4960603  92.4642836  49.9180426  12.1064508  77.7563486  52.1620390
  12.6033207  77.0033448  51.8421461  11.3351489  77.7927803  51.5963600
  19.9594265  83.4603852  53.8038682  19.9484141  84.3428567  53.4332615
  19.0911644  83.1075402  53.6093219  11.4676761  92.6083921  58.1641522
  12.1804734  93.2431385  58.0917423  10.9766790  92.7047787  57.3481524
  13.1894288  86.5135173  49.7358814  12.2550567  86.6336636  49.5663518
  13.3670957  85.6107640  49.4718824   8.6899476  79.8980869  51.8892075
   8.3197264  79.3451909  52.5772980   9.1858569  79.2939003  51.3367075
  16.5766840  82.3552493  50.2708848  17.0427292  83.1880484  50.1969150
  17.0274340  81.8897474  50.9754106   6.5188675  90.3578364  58.9847093
   7.2198134  90.9914847  59.1376487   6.0483790  90.6993096  58.2242732
  14.6443071  88.6996314  47.2695000  14.9202915  88.5852908  48.1788874
  13.7747570  88.3013799  47.2307173  14.5483502  74.7233080  54.3099749
  13.6346582  74.9537306  54.4781956  14.9776604  74.8071524  55.1613782
  14.3189961  82.9122972  56.8099643  13.6661411  83.1598879  56.1552096
  14.6970341  82.0987110  56.4762120  11.2797135  92.9482665  50.9127813
  11.4619529  92.1304321  51.3755566  12.1030121  93.1650357  50.4752703
  11.6139300  91.8750850  48.1742862  12.1427067  91.3643304  47.5613024
  11.8767520  91.5593380  49.0388395  10.3677534  83.6542783  63.2965680
   9.6918171  83.5536912  63.9668055  11.1905168  83.4981996  63.7601677
   2.1156393  89.8914719  55.9178196   2.7009830  89.1458407  56.0506100
   1.9181231  90.2018676  56.8014859   4.0864810  77.3084860  58.1345181
   4.1506137  78.1699691  57.7222579   4.0231930  76.6958861  57.4017539
   3.5617083  79.3807992  61.7818215   4.1889121  78.9985070  62.3955740
   2.7045001  79.1622194  62.1473908  13.9611191  89.7870968  63.3871951
  14.5051095  90.4000926  62.8926905  13.3798036  90.3450546  63.9038964
  12.2468704  92.9091686  54.5186978  12.1219844  92.1081425  54.0097924
  12.9047795  93.4037879  54.0300948   3.8676872  79.2640418  53.6964119
   3.1463458  79.8776386  53.5571592   4.6570128  79.7998183  53.6180765
  14.3103612  90.7100706  56.1466529  13.3633948  90.5906057  56.0744855
  14.6586386  89.8223204  56.2292790   6.6703186  76.5994845  59.9704770
   7.1937588  76.8457141  60.7331080   6.4515519  77.4314879  59.5507908
   2.0670467  78.8698519  47.8375895   1.7383173  77.9895898  47.6551001
   2.4209838  78.8146188  48.7252284  11.3150046  90.5053422  52.3470881
  11.1675008  89.5770129  52.5278451  12.1403539  90.5273513  51.8627956
   5.1812290  79.1571489  48.2051373   5.5208363  79.6857410  47.4829981
   5.6284411  79.4951895  48.9809939  14.9184168  91.3281981  53.4335754
  15.8430715  91.1224842  53.2960205  14.7499471  91.0798382  54.3425095
   7.8755731  77.5408540  57.6554441   7.5352551  76.7416353  58.0575121
   7.1694737  77.8410251  57.0831274   8.5272203  74.6257852  56.1081764
   9.3498272  74.1518330  55.9860654   8.7710266  75.4048336  56.6080450
   7.1680437  77.6546111  46.4044666   7.8888800  78.0327363  45.9008383
   6.5445741  78.3734987  46.5079644  11.3111560  78.3591260  47.3402998
  11.5275174  79.2415897  47.0391826  10.8305627  77.9677473  46.6108640
   6.0510781  81.3176973  53.9173743   5.9055362  81.6317276  54.8098024
   5.5735985  81.9361873  53.3644641   7.9107164  78.3079521  53.9654632
   7.8968733  77.4120614  53.6286930   8.6279592  78.3150184  54.5992918
   9.7633295  78.7416861  56.0107760   9.5051073  79.6633932  56.0092090
   9.2318335  78.3447295  56.7008224  14.7079484  91.8467648  48.7897845
  14.8816361  91.2814071  48.0371697  15.2008375  92.6468543  48.6077335
   7.3144060  77.1893901  49.2342202   7.4359971  76.2610547  49.4333090
   7.0246103  77.2032587  48.3220518  10.1835251  74.8748811  52.3708922
  10.2056948  74.9388145  51.4160902  10.6003310  74.0353320  52.5649428
  20.5618875  84.6104071  50.4088145  21.0050021  83.8611396  50.0107268
  19.6845385  84.6014207  50.0261877  15.6954656  91.1634412  45.8894743
  16.3905561  91.7841105  46.1082058  16.0377806  90.3129764  46.1647121
   1.3122466  82.9852213  59.7491561   0.5704202  83.1334849  60.3356191
   0.9915210  83.2460479  58.8858310  17.5946079  88.6134118  47.4182074
  18.1197404  88.9521391  46.6931394  17.5068432  87.6781133  47.2345209
   9.2566128  92.5268192  59.5471951   9.5653255  92.2817338  60.4194650
  10.0541610  92.7314830  59.0590821   1.7579079  90.8717642  51.7801955
   2.5837099  90.5721414  51.4000599   1.4073131  90.1025265  52.2291744
   6.7260612  90.2244110  53.8499629   6.1040622  89.5614815  53.5501857
   7.3965479  90.2505242  53.1673277   6.7985140  78.7025898  63.4432135
   6.8473295  79.5788021  63.0609904   7.3407654  78.1603291  62.8703778
  17.2839986  89.2467022  62.7233272  16.4935529  89.2291160  62.1837771
  17.0473340  89.7855315  63.4782309  17.4037861  86.0959488  60.0366000
  17.4535866  85.9309495  60.9781523  17.2951784  85.2286747  59.6463881
   6.2874119  88.7748034  47.3258089   6.4362240  89.4583498  46.6724762
   7.0940563  88.7553124  47.8407545  14.6941623  82.0790416  61.3525307
  15.5951486  81.9396881  61.0609305  14.7689597  82.2444871  62.2923485
   9.0284428  79.4557271  60.1978494   8.1587738  79.7490837  59.9261082
   9.2643909  80.0397716  60.9185757  18.9056057  88.5156430  60.2808022
  18.6140866  88.8786410  61.1171483  18.2928189  87.8023438  60.1021354
  20.1051740  86.0809309  52.8010592  20.9398631  86.5199113  52.9648153
  20.2410869  85.6047963  51.9818838  17.1543246  83.6389044  58.7488080
  17.6297367  83.8316690  57.9406931  16.2308811  83.6948230  58.5031464
   4.0426752  84.8013211  48.3319158   3.7972794  83.8975541  48.5299368
   4.2122667  84.8030362  47.3898636  11.7323462  75.6736888  57.7143914
  12.2505406  76.4097915  57.3890402  11.3778595  75.9800881  58.5490673
   3.3122400  80.5341569  45.8305320   2.6191645  80.6085924  45.1745356
   3.0674152  79.7701913  46.3526837  11.9836056  72.0937170  53.2344811
  12.2637810  71.4260359  53.8605237  12.7686663  72.2866266  52.7219474
   9.7869525  91.2696164  44.7969837   9.2143492  91.8886351  44.3440309
  10.3602318  91.8195526  45.3309759  15.8544915  80.5154804  56.9816386
  16.8062338  80.6152902  57.0028610  15.6848365  79.7233073  57.4914470
  13.8759294  77.6010387  57.1675787  13.2809226  77.8815400  56.4722275
  13.5908991  78.0904288  57.9392528  13.0066785  91.5533314  45.9278419
  13.9397458  91.4878876  46.1311295  12.9189997  92.3889581  45.4692952
  15.6354801  90.8699185  42.8882367  15.5568433  90.5359048  43.7818125
  16.4564468  91.3620953  42.8873839  18.3332992  83.7360924  56.0958685
  18.3009313  82.7976925  56.2818369  18.9433616  83.8144961  55.3624510
  10.1716323  82.6056977  42.1385889  11.1175428  82.4763185  42.2074307
   9.7930568  81.8671639  42.6155317  18.4827481  80.5271967  56.1416968
  17.9666530  79.7430424  55.9546897  19.3667429  80.1990684  56.3063488
  16.1438208  74.2712983  52.1012781  15.9463029  73.9628071  52.9856113
  16.7537913  74.9974622  52.2310711  24.1509542  84.7976931  55.2364722
  24.8812931  84.5362219  55.7972425  23.5416488  84.0605653  55.2766790
  22.2324839  82.9384793  55.8339173  21.5058003  82.8040758  55.2255665
  21.8172126  83.2461622  56.6395891  10.0555016  86.6574723  63.5986546
  10.9758025  86.8353322  63.7926593  10.0204599  85.7130768  63.4466246
   8.3559240  80.5306953  42.0740775   7.4490696  80.2340066  42.1503488
   8.6335221  80.2336771  41.2075061   3.0517088  84.5675758  56.2409327
   3.2703098  85.4992865  56.2597361   3.4642862  84.2083732  57.0264131
   9.9721306  75.0743843  48.2285016   9.1622034  74.7290928  48.6040262
  10.6605723  74.7651387  48.8172627  11.9011854  74.1521890  49.8509312
  12.4542893  74.5717343  50.5099336  12.1381941  73.2257638  49.8932268
   7.9244954  80.1408963  65.6312076   7.8241681  81.0903320  65.5624167
   7.7066496  79.8127202  64.7588146   7.1258025  77.3893889  42.2152754
   7.9877189  77.7148787  42.4748571   7.3108369  76.6025384  41.7025820
  15.2790662  76.2622415  49.3587977  14.6989331  76.9207219  48.9766029
  15.0126594  75.4399760  48.9475394  13.7294228  75.6627473  51.5609297
  14.2294006  75.7744007  50.7523616  14.3729836  75.3588526  52.2010106
   7.7876224  83.5706102  64.4477138   7.3043305  84.3706462  64.6541027
   7.8737163  83.5814047  63.4944582   1.0562183  85.4034482  52.3698957
   1.0332871  85.5022169  51.4180841   1.3662820  86.2499633  52.6916124
   3.7149561  87.4610637  56.4845572   4.6692815  87.4294579  56.4175503
   3.5162085  87.0001261  57.2995798   4.3048943  86.0311753  59.0516369
   5.1241832  86.5255832  59.0751207   4.5785751  85.1143721  59.0233937
  14.0615540  78.4222505  48.4144325  13.1741395  78.7072156  48.1964520
  14.4769529  78.2616269  47.5671602  17.4130076  78.4469026  52.1298664
  18.1890466  78.9365479  52.4023281  16.6878210  78.8727081  52.5870534
  19.8502634  79.1596646  53.1872605  20.4447125  78.9192382  52.4765913
  19.9229218  78.4403776  53.8146141  13.2058753  88.1867180  42.5092345
  13.9094603  88.3917183  43.1250001  12.4821402  88.7543942  42.7741429
  14.0356563  83.9377041  48.6294615  13.9791765  84.3945593  47.7902248
  14.5884906  83.1767726  48.4517458  17.8461369  79.7266773  49.4544735
  17.5898303  79.3263409  50.2852942  17.2214237  80.4410567  49.3294874
  22.1573707  82.4662846  51.9616026  21.5973265  82.5356036  52.7347588
  21.5517210  82.2903831  51.2415522  15.1145450  88.6249709  44.5590805
  15.9491054  88.1930908  44.3768280  14.9529793  88.4531723  45.4867700
  14.7691343  85.1281823  45.9247144  14.7140146  84.9626094  44.9835588
  14.1437398  85.8357855  46.0809334  12.0837250  87.4330734  65.2500707
  12.9528409  87.6071387  64.8887342  11.6044001  88.2525151  65.1276436
   8.0787468  74.6289932  45.5032463   8.0666138  75.5731771  45.6600734
   8.9710890  74.4460077  45.2091924  11.8939588  71.2232708  49.7578400
  11.1271983  70.6691195  49.9035082  12.3050292  71.2954577  50.6192551
   3.8981349  77.5117504  63.8483581   4.7612810  77.1554309  64.0586905
   3.3246759  77.1731399  64.5358985  23.2970994  96.8670814  51.7299190
  24.0834083  96.4490237  51.3789607  23.5609698  97.7716906  51.8980838
  28.6979421  96.8046047  52.6332168  29.4304593  96.2345264  52.8669998
  27.9418777  96.4167648  53.0738674  26.2204841  90.5167621  57.0926777
  25.8888166  91.3863032  56.8687992  25.6250455  90.2003905  57.7720807
  19.9561028  94.2563189  44.8256859  20.1235430  95.1243425  45.1927330
  19.7658197  94.4190470  43.9018149  26.1133505  95.2362708  54.1720127
  25.2050382  95.1678116  53.8778888  26.0621101  95.7134653  55.0001952
  19.9350249  96.7120846  45.8103526  19.8149874  97.1577897  46.6489006
  19.2402837  97.0606164  45.2517064  20.1874371  96.6552353  62.1155024
  19.4107705  97.2146273  62.1057889  20.8264934  97.1409136  62.6369894
  27.9795151  93.4379146  55.9498001  27.3369531  93.7311679  55.3037796
  27.4750080  93.3232066  56.7551198  25.6335315  97.1842319  46.6383860
  26.5453171  97.4169706  46.4631558  25.1244962  97.7679363  46.0758939
  20.2707153  96.5439554  57.6478710  21.1168348  96.9678967  57.7913359
  20.2105790  95.8873178  58.3417273  23.4206598  94.2043922  59.3059883
  23.1767530  94.9585983  58.7694159  23.6966528  94.5829270  60.1407130
  22.9771290  93.3600355  54.8873721  22.1155769  93.6581609  55.1790459
  23.0033724  93.5770754  53.9554754  34.5796882  99.9693238  52.5044478
  33.8260590  99.4000637  52.3488482  34.7144423  99.9355903  53.4515112
  16.4562849  90.9198221  64.8413552  16.0629795  90.3664419  65.5161197
  17.2728990  91.2308799  65.2320070  19.3730810  92.3356100  62.4333809
  20.1140524  92.9363253  62.3538271  19.6048733  91.5933738  61.8751851
  23.3187973  88.3637203  56.7098091  22.9752243  89.2538844  56.6337201
  23.6866936  88.1738860  55.8467676  20.8685367  93.1995515  50.2755764
  20.0126963  92.8102365  50.0961403  21.2812319  93.2787475  49.4155550
  22.3984514  90.7341858  54.6747324  21.8949309  90.6971993  53.8615129
  22.6915121  91.6434601  54.7343980  18.6427400  90.8180588  53.6813506
  19.5080396  90.6223396  53.3219395  18.7104908  90.5890939  54.6082862
  23.0724559  96.2272906  47.0430307  22.7674695  96.5419055  47.8940450
  24.0255001  96.3054326  47.0857640  16.2489719  93.0482795  51.0529872
  16.8233471  92.8257977  50.3203065  16.8360701  93.1171490  51.8058474
  25.3069296  98.9356522  51.8594249  25.8201178  99.5686514  52.3615959
  25.9570520  98.3357718  51.4937609  16.5759306  95.0787256  45.0725758
  15.7396618  95.4161943  45.3935032  16.4364075  94.9436236  44.1352895
  18.5512386  89.9224044  49.7804942  17.8976799  89.6073062  49.1561557
  18.5092861  89.2999785  50.5064765  21.7850127  96.4105978  54.1052589
  20.8672688  96.6320925  53.9474277  22.2010270  96.4852288  53.2464297
  22.5685174  97.8097394  49.2355270  23.3156993  98.3218791  48.9262392
  22.8376764  97.4881446  50.0959663  25.0164012  94.8454510  51.2174059
  24.2786768  94.3331896  51.5484302  25.2690785  94.4054891  50.4057336
  25.1175639  87.6230762  51.8115828  25.4234516  86.7628125  51.5241743
  25.8428244  88.2148382  51.6114822  22.9263290  97.0003439  58.9097292
  23.2812678  97.2274912  59.7691758  23.5735422  97.3321816  58.2874547
  16.8203153  94.1079970  55.6943633  17.4602533  93.9668729  54.9966596
  15.9880684  93.8214484  55.3182235  13.8231770  94.0780295  50.4716620
  14.0838587  94.9925628  50.3625780  14.6448942  93.6104738  50.6213233
  15.2956695  95.4918052  57.6415444  15.9679749  95.2835414  56.9928093
  14.4686482  95.2940138  57.2020677  21.1982267  92.1179993  59.6581105
  20.5510182  92.8169943  59.5645582  21.9683283  92.5516137  60.0257354
  17.0395427  95.4645833  59.7097201  16.5032784  95.0136571  60.3618797
  16.4512135  95.5991741  58.9667665  16.4497686  94.9234484  42.2723664
  15.5727152  94.8023285  41.9085911  16.9255439  94.1320562  42.0202553
  22.9458262  93.0855404  52.1620390  23.4426962  92.3325366  51.8421461
  22.1745244  93.1219720  51.5963600  30.7988020  98.7895769  53.8038682
  30.7877896  99.6720485  53.4332615  29.9305399  98.4367320  53.6093219
  19.5293231  95.2272787  51.8892075  19.1591018  94.6743827  52.5772980
  20.0252323  94.6230920  51.3367075  27.4160594  97.6844410  50.2708848
  27.8821046  98.5172402  50.1969150  27.8668095  97.2189392  50.9754106
  25.3877257  90.0524997  54.3099749  24.4740337  90.2829224  54.4781956
  25.8170358  90.1363441  55.1613782  25.1583715  98.2414889  56.8099643
  24.5055166  98.4890797  56.1552096  25.5364095  97.4279027  56.4762120
  14.9258565  92.6376778  58.1345181  14.9899891  93.4991608  57.7222579
  14.8625685  92.0250779  57.4017539  14.4010837  94.7099910  61.7818215
  15.0282876  94.3276987  62.3955740  13.5438756  94.4914112  62.1473908
  14.7070627  94.5932336  53.6964119  13.9857213  95.2068303  53.5571592
  15.4963883  95.1290101  53.6180765  17.5096940  91.9286762  59.9704770
  18.0331342  92.1749059  60.7331080  17.2909274  92.7606797  59.5507908
  12.9064221  94.1990437  47.8375895  12.5776928  93.3187816  47.6551001
  13.2603592  94.1438106  48.7252284  16.0206045  94.4863407  48.2051373
  16.3602117  95.0149328  47.4829981  16.4678165  94.8243813  48.9809939
  18.7149485  92.8700457  57.6554441  18.3746306  92.0708270  58.0575121
  18.0088492  93.1702168  57.0831274  19.3665957  89.9549770  56.1081764
  20.1892027  89.4810248  55.9860654  19.6104021  90.7340254  56.6080450
  18.0074192  92.9838028  46.4044666  18.7282554  93.3619281  45.9008383
  17.3839496  93.7026905  46.5079644  22.1505315  93.6883177  47.3402998
  22.3668929  94.5707815  47.0391826  21.6699382  93.2969391  46.6108640
  18.7500919  93.6371438  53.9654632  18.7362488  92.7412532  53.6286930
  19.4673347  93.6442102  54.5992918  20.6027050  94.0708779  56.0107760
  20.3444827  94.9925849  56.0092090  20.0712090  93.6739213  56.7008224
  18.1537815  92.5185819  49.2342202  18.2753726  91.5902465  49.4333090
  17.8639857  92.5324505  48.3220518  21.0229005  90.2040729  52.3708922
  21.0450702  90.2680062  51.4160902  21.4397064  89.3645238  52.5649428
  31.4012630  99.9395989  50.4088145  31.8443776  99.1903314  50.0107268
  30.5239140  99.9306125  50.0261877  17.6378894  94.0317816  63.4432135
  17.6867050  94.9079939  63.0609904  18.1801409  93.4895209  62.8703778
  25.5335377  97.4082334  61.3525307  26.4345240  97.2688799  61.0609305
  25.6083352  97.5736789  62.2923485  19.8678183  94.7849188  60.1978494
  18.9981492  95.0782755  59.9261082  20.1037663  95.3689633  60.9185757
  27.9937000  98.9680962  58.7488080  28.4691122  99.1608608  57.9406931
  27.0702566  99.0240148  58.5031464  22.5717217  91.0028805  57.7143914
  23.0899160  91.7389832  57.3890402  22.2172349  91.3092799  58.5490673
  22.8229811  87.4229088  53.2344811  23.1031565  86.7552277  53.8605237
  23.6080418  87.6158184  52.7219474  26.6938669  95.8446722  56.9816386
  27.6456092  95.9444820  57.0028610  26.5242120  95.0524990  57.4914470
  24.7153049  92.9302305  57.1675787  24.1202981  93.2107318  56.4722275
  24.4302745  93.4196206  57.9392528  29.1726747  99.0652842  56.0958685
  29.1403067  98.1268842  56.2818369  29.7827371  99.1436878  55.3624510
  29.3221235  95.8563885  56.1416968  28.8060284  95.0722342  55.9546897
  30.2061184  95.5282602  56.3063488  26.9831962  89.6004901  52.1012781
  26.7856783  89.2919989  52.9856113  27.5931668  90.3266540  52.2310711
  34.9903297 100.1268848  55.2364722  35.7206685  99.8654137  55.7972425
  34.3810242  99.3897570  55.2766790  33.0718594  98.2676711  55.8339173
  32.3451757  98.1332676  55.2255665  32.6565881  98.5753540  56.6395891
  19.1952995  95.8598871  42.0740775  18.2884450  95.5631984  42.1503488
  19.4728976  95.5628689  41.2075061  20.8115061  90.4035761  48.2285016
  20.0015789  90.0582846  48.6040262  21.4999478  90.0943304  48.8172627
  22.7405609  89.4813807  49.8509312  23.2936648  89.9009261  50.5099336
  22.9775695  88.5549556  49.8932268  18.7638708  95.4700881  65.6312076
  18.6635435  96.4195238  65.5624167  18.5460250  95.1419120  64.7588146
  17.9651780  92.7185806  42.2152754  18.8270944  93.0440704  42.4748571
  18.1502124  91.9317302  41.7025820  26.1184416  91.5914333  49.3587977
  25.5383085  92.2499137  48.9766029  25.8520349  90.7691677  48.9475394
  24.5687982  90.9919390  51.5609297  25.0687761  91.1035925  50.7523616
  25.2123590  90.6880443  52.2010106  24.9009294  93.7514423  48.4144325
  24.0135149  94.0364074  48.1964520  25.3163283  93.5908186  47.5671602
  28.2523830  93.7760944  52.1298664  29.0284220  94.2657396  52.4023281
  27.5271964  94.2018998  52.5870534  30.6896389  94.4888563  53.1872605
  31.2840880  94.2484299  52.4765913  30.7622973  93.7695694  53.8146141
  28.6855124  95.0558691  49.4544735  28.4292058  94.6555326  50.2852942
  28.0607992  95.7702485  49.3294874  32.9967462  97.7954764  51.9616026
  32.4367020  97.8647953  52.7347588  32.3910965  97.6195749  51.2415522
  18.9181223  89.9581849  45.5032463  18.9059892  90.9023689  45.6600734
  19.8104644  89.7751995  45.2091924  22.7333342  86.5524626  49.7578400
  21.9665738  85.9983113  49.9035082  23.1444047  86.6246495  50.6192551
  14.7375103  92.8409422  63.8483581  15.6006565  92.4846227  64.0586905
  14.1640514  92.5023316  64.5358985  33.5727097 101.8816544  49.7578400
  32.8059492 101.3275030  49.9035082  33.9837801 101.9538412  50.6192551
   2.0615619  30.9879608  39.2289784   1.3079328  30.4187006  39.0733789
   2.1963161  30.9542273  40.1760419   2.4722035  31.1455218  41.9610029
   3.2025423  30.8840506  42.5217732   1.8628980  30.4083940  42.0012097
   2.0642218  45.4897648  41.3791288   2.7020628  45.3704395  40.6754628
   1.9463061  46.4378492  41.4379241   1.6183486  43.2149101  38.4544496
   2.4046576  42.7968525  38.1034913   1.8822191  44.1195194  38.6226145
   1.7893564  48.6521952  33.1533153   1.1539397  48.7256578  33.8654058
   1.4590970  49.2415551  32.4752233   7.0191913  43.1524335  39.3577475
   7.7517085  42.5823551  39.5915304   6.2631269  42.7645935  39.7983981
   4.5417334  36.8645909  43.8172084   4.2100659  37.7341320  43.5933299
   3.9462947  36.5482193  44.4966114   1.0348853  49.0658455  43.2167996
   0.7349576  49.9683494  43.1083804   0.6899913  48.7990638  44.0689149
   4.4345997  41.5840995  40.8965434   3.5262874  41.5156403  40.6024195
   4.3833593  42.0612940  41.7247259   6.3007643  39.7857433  42.6743308
   5.6582024  40.0789966  42.0283102   5.7962572  39.6710354  43.4796504
   3.9547807  43.5320606  33.3629167   4.8665663  43.7647993  33.1876864
   3.4457454  44.1157651  32.8004245   2.2388575  47.9545234  46.9990459
   2.6471931  47.5127645  46.2545092   1.5165836  47.3797862  47.2524652
   2.5617389  48.5146425  40.7542748   1.9326252  48.6792139  40.0518816
   2.1743052  48.9288034  41.5253712   6.4406621  49.4500863  38.1087112
   5.7557660  49.8299764  37.5584145   6.5250471  50.0596189  38.8419060
   1.7419090  40.5522209  46.0305190   1.4980022  41.3064270  45.4939466
   2.0179021  40.9307557  46.8652437   3.6957553  47.0960822  44.7082456
   3.9074448  47.7392582  44.0316837   3.6487301  46.2623138  44.2404386
   4.8103381  49.9732777  42.8804813   5.6320825  49.5712965  42.5987495
   4.8065784  49.8701011  43.8320929  12.9009374  46.3171526  39.2289784
  12.1473082  45.7478924  39.0733789  13.0356915  46.2834190  40.1760419
   2.0157716  52.0911294  47.0626247   1.9976192  52.9120176  46.5706516
   2.9377637  51.9665370  47.2876388   1.6400466  34.7115490  43.4343397
   1.2964735  35.6017132  43.3582508   2.0079428  34.5217148  42.5712982
   1.6050748  44.7024101  31.9415832   1.0897372  45.4728706  32.1804220
   1.3328057  44.0289237  32.5648894   6.5785022  47.4556456  33.8769006
   5.8014465  47.1167615  33.4324168   7.2576503  47.4609079  33.2023971
   1.3937051  42.5751193  33.7675613   1.0887187  42.8897342  34.6185757
   2.3467494  42.6532613  33.8102946   4.8176329  46.9290437  40.5335614
   4.1600004  47.6189698  40.6215742   5.6216729  47.3186869  40.8769600
   3.6281788  45.2834810  38.5839556   4.1413670  45.9164801  39.0861265
   4.2783012  44.6836005  38.2182916   0.8897667  44.1575681  35.9600576
   1.6369486  44.6697078  35.6507698   1.1589256  43.8359734  36.8204970
   4.3943584  50.2640811  36.7118698   3.9405911  49.4231721  36.7683889
   3.7637551  50.9002209  37.0493478   3.3376504  41.1932797  37.9419366
   2.5999261  40.6810183  38.2729608   3.5903277  40.7533179  37.1302642
   2.8376524  52.1017308  37.6468516   3.1299498  52.6622365  36.9280882
   3.3475144  52.3945869  38.4021675   3.4388131  33.9709049  38.5361135
   3.7447008  33.1106413  38.2487050   4.1640736  34.5626669  38.3360129
   1.2475783  43.3481726  45.6342599   1.6025170  43.5753200  46.4937064
   1.8947914  43.6800103  45.0119854   6.9773520  46.4700162  36.3391928
   6.8391418  46.6601758  35.4113117   6.6209738  47.2319545  36.7959979
   7.0042899  48.5376689  41.3503199   7.4379406  48.4451978  42.1986253
   7.7174480  48.5134190  40.7123215   7.8658449  48.5800390  43.8836085
   8.0594339  49.4846200  44.1295360   7.7659067  48.1207809  44.7174670
   2.9273557  48.7307133  49.4576965   2.7759064  48.5017684  48.5407049
   2.9178237  49.6877734  49.4708310   2.9811632  47.0527347  29.8747667
   2.3640803  46.3274175  29.7780719   2.5128121  47.8136707  29.5314741
   4.6365764  51.7626255  47.5353447   4.5778310  51.0785475  46.8684030
   5.0385282  52.5045245  47.0834073   4.6383171  49.7265839  45.7667427
   3.7509950  49.3891761  45.8893826   5.2081722  48.9948870  46.0036192
   1.2670754  39.4333691  38.8865697   1.7639454  38.6803653  38.5666767
   0.4957736  39.4698008  38.3208906   9.1200512  45.1374057  40.5283988
   9.1090388  46.0198772  40.1577922   8.2517891  44.7845607  40.3338525
   2.3500535  48.1905378  36.4604120   1.4156814  48.3106841  36.2908825
   2.5277204  47.2877845  36.1964130   5.7373086  44.0322697  36.9954154
   6.2033539  44.8650689  36.9214457   6.1880587  43.5667679  37.6999413
   3.8049318  50.3766519  33.9940307   4.0809161  50.2623113  34.9034181
   2.9353816  49.9784004  33.9552480   3.7089749  36.4003284  41.0345056
   2.7952829  36.6307511  41.2027263   4.1382851  36.4841729  41.8859088
   3.4796208  44.5893176  43.5344950   2.8267658  44.8369084  42.8797403
   3.8576588  43.7757315  43.2007427   0.7745547  53.5521055  34.8988169
   1.3033313  53.0413509  34.2858331   1.0373767  53.2363585  35.7633702
   3.1217438  51.4641172  50.1117257   3.6657342  52.0771131  49.6172212
   2.5404283  52.0220751  50.6284270   1.4074951  54.5861890  41.2432285
   1.2826090  53.7851630  40.7343231   2.0654042  55.0808084  40.7546255
   3.4709859  52.3870911  42.8711835   2.5240195  52.2676262  42.7990162
   3.8192632  51.4993409  42.9538097   4.0790414  53.0052186  40.1581060
   5.0036962  52.7995047  40.0205511   3.9105718  52.7568587  41.0670402
   3.8685731  53.5237853  35.5143152   4.0422608  52.9584275  34.7617004
   4.3614622  54.3238748  35.3322642   9.7225122  46.2874276  37.1333451
  10.1656268  45.5381601  36.7352575   8.8451632  46.2784412  36.7507183
   4.8560903  52.8404617  32.6140050   5.5511808  53.4611310  32.8327365
   5.1984053  51.9899969  32.8892428   6.7552326  50.2904323  34.1427381
   7.2803650  50.6291596  33.4176701   6.6674679  49.3551338  33.9590515
   6.4446232  50.9237227  49.4478579   5.6541776  50.9061365  48.9083078
   6.2079587  51.4625520  50.2027615   6.5644107  47.7729693  46.7611307
   6.6142112  47.6079700  47.7026830   6.4558031  46.9056952  46.3709188
   3.8547870  43.7560621  48.0770614   4.7557732  43.6167086  47.7854612
   3.9295844  43.9215076  49.0168791   8.0662304  50.1926634  47.0053329
   7.7747112  50.5556615  47.8416790   7.4534435  49.4793643  46.8266661
   9.2657986  47.7579514  39.5255899  10.1004878  48.1969318  39.6893459
   9.4017115  47.2818167  38.7064145   6.3149492  45.3159249  45.4733387
   6.7903614  45.5086895  44.6652238   5.3915058  45.3718435  45.2276770
   0.8929709  37.3507093  44.4389221   1.4111653  38.0868120  44.1135709
   0.5384842  37.6571086  45.2735980   1.1442303  33.7707375  39.9590117
   1.4244057  33.1030564  40.5850544   1.9292910  33.9636471  39.4464781
   5.0151161  42.1925009  43.7061692   5.9668584  42.2923107  43.7273916
   4.8454612  41.4003278  44.2159777   3.0365541  39.2780592  43.8921093
   2.4415473  39.5585605  43.1967582   2.7515238  39.7674493  44.6637834
   2.1673031  53.2303519  32.6523726   3.1003704  53.1649081  32.8556601
   2.0796244  54.0659786  32.1938258   4.7961048  52.5469390  29.6127673
   4.7174680  52.2129253  30.5063431   5.6170715  53.0391157  29.6119146
   7.4939239  45.4131129  42.8203992   7.4615559  44.4747130  43.0063676
   8.1039863  45.4915166  42.0869817   7.6433728  42.2042172  42.8662275
   7.1272776  41.4200629  42.6792204   8.5273676  41.8760889  43.0308795
   5.3044455  35.9483188  38.8258088   5.1069276  35.6398276  39.7101420
   5.9144160  36.6744827  38.9556018  13.3115789  46.4747136  41.9610029
  14.0419178  46.2132424  42.5217732  12.7022735  45.7375858  42.0012097
  11.3931086  44.6154998  42.5584480  10.6664250  44.4810963  41.9500972
  10.9778373  44.9231827  43.3641198   1.0618101  35.8292095  36.5754619
   1.6149140  36.2487548  37.2344642   1.2988188  34.9027843  36.6177575
   4.4396908  37.9392620  36.0833283   3.8595577  38.5977424  35.7011336
   4.1732841  37.1169964  35.6720701   2.8900475  37.3397678  38.2854604
   3.3900253  37.4514212  37.4768923   3.5336083  37.0358730  38.9255412
   3.2221786  40.0992710  35.1389632   2.3347641  40.3842361  34.9209826
   3.6375775  39.9386474  34.2916909   6.5736322  40.1239231  38.8543971
   7.3496713  40.6135684  39.1268588   5.8484457  40.5497285  39.3115840
   9.0108881  40.8366850  39.9117912   9.6053372  40.5962586  39.2011220
   9.0835465  40.1173981  40.5391448   2.3665000  49.8637385  29.2337652
   3.0700850  50.0687387  29.8495307   1.6427649  50.4314147  29.4986735
   3.1962810  45.6147246  35.3539922   3.1398011  46.0715798  34.5147554
   3.7491153  44.8537931  35.1762765   7.0067616  41.4036978  36.1790041
   6.7504550  41.0033614  37.0098249   6.3820484  42.1180772  36.0540180
  11.3179954  44.1433051  38.6861333  10.7579512  44.2126241  39.4592895
  10.7123457  43.9674036  37.9660829   4.2751697  50.3019914  31.2836112
   5.1097301  49.8701113  31.1013586   4.1136040  50.1301928  32.2113006
   3.9297589  46.8052027  32.6492451   3.8746393  46.6396299  31.7080895
   3.3043645  47.5128060  32.8054641   1.2443497  49.1100939  51.9746014
   2.1134656  49.2841592  51.6132649   0.7650248  49.9295356  51.8521743
  12.9035972  60.8189565  41.3791288  13.5414382  60.6996313  40.6754628
  12.7856815  61.7670409  41.4379241   9.7125679  60.7716993  41.3152813
   9.3744190  60.6558058  40.4273348  10.5815447  60.3708158  41.2953819
   5.5712494  62.6252470  37.3049704   5.0077359  62.5342407  36.5365992
   5.4564889  61.8052374  37.7852197  10.1945462  61.9251845  47.2739019
  10.1834102  61.5304643  46.4019522  10.3566101  61.1917918  47.8672790
   3.1176926  64.1203661  40.1433925   3.9098218  63.7794486  39.7280224
   3.3573576  64.2298636  41.0636078  11.1512053  66.2923437  32.6164169
  10.5000033  66.8777518  32.2298183  11.9456416  66.8229632  32.6759206
   5.0767680  63.3812575  33.0151303   5.8498556  62.8341562  32.8764179
   5.4293079  64.2456824  33.2265765   6.9152723  64.7088957  46.2218203
   6.6242589  65.6134588  46.1064869   7.5509707  64.7505484  46.9362272
   7.8408930  62.0865805  42.8119562   8.4372502  61.8621828  42.0976525
   7.8983901  61.3450551  43.4145010   7.4133958  59.5405241  30.6469753
   7.6659479  59.0186762  29.8853216   6.4758517  59.3771386  30.7496437
  12.4577241  58.5441019  38.4544496  13.2440330  58.1260442  38.1034913
  12.7215945  59.4487111  38.6226145  12.6287318  63.9813869  33.1533153
  11.9933151  64.0548496  33.8654058  12.2984725  64.5707468  32.4752233
  17.8585668  58.4816252  39.3577475  18.5910840  57.9115469  39.5915304
  17.1025024  58.0937853  39.7983981   7.1330247  61.4433347  32.8494128
   7.0166505  60.7678250  33.5175213   7.2432507  60.9565721  32.0326281
   9.4761788  60.9043494  36.5540817   9.1119995  60.3774115  37.2653739
  10.3328904  60.5141963  36.3807303  15.3811088  52.1937826  43.8172084
  15.0494413  53.0633237  43.5933299  14.7856702  51.8774110  44.4966114
   9.1167275  55.9333393  31.5502166   9.2841677  56.8013630  31.9172637
   8.9264444  56.0960675  30.6263455  11.8742608  64.3950372  43.2167996
  11.5743331  65.2975411  43.1083804  11.5293667  64.1282556  44.0689149
   5.3255089  60.8464169  39.2504701   4.4005586  60.7140383  39.4582393
   5.5739502  61.6258388  39.7474643  15.2739752  56.9132913  40.8965434
  14.3656629  56.8448321  40.6024195  15.2227347  57.3904858  41.7247259
   9.0956495  58.3891051  32.5348833   8.9756121  58.8348102  33.3734313
   8.4009084  58.7376369  31.9762371   2.6863900  60.4897443  40.0848490
   2.8156281  60.7431922  40.9987902   2.0061352  61.0825151  39.7653145
   6.8563388  71.1594693  36.1838964   6.7787417  72.1102518  36.2627445
   6.2525031  70.8140565  36.8413890   9.3480617  58.3322558  48.8400331
   8.5713951  58.8916478  48.8303196   9.9871180  58.8179341  49.3615201
  17.1401398  55.1149351  42.6743308  16.4975778  55.4081884  42.0283102
  16.6356327  55.0002271  43.4796504  14.7941562  58.8612524  33.3629167
  15.7059418  59.0939911  33.1876864  14.2851209  59.4449568  32.8004245
   7.6026990  61.1408012  48.4018298   8.3441674  61.6793055  48.1253122
   6.8963975  61.7674300  48.5589850  13.0782329  63.2837152  46.9990459
  13.4865685  62.8419563  46.2545092  12.3559591  62.7089780  47.2524652
   9.4313399  58.2209759  44.3724016  10.2774595  58.6449172  44.5158665
   9.3712037  57.5643383  45.0662579  13.4011144  63.8438343  40.7542748
  12.7720006  64.0084057  40.0518816  13.0136806  64.2579952  41.5253712
  17.2800376  64.7792780  38.1087112  16.5951414  65.1591682  37.5584145
  17.3644225  65.3888107  38.8419060  12.5812845  55.8814127  46.0305190
  12.3373777  56.6356188  45.4939466  12.8572775  56.2599475  46.8652437
  14.5351307  62.4252739  44.7082456  14.7468203  63.0684499  44.0316837
  14.4881056  61.5915056  44.2404386  12.1377536  55.0370560  41.6119028
  11.2762015  55.3351814  41.9035765  12.1639971  55.2540959  40.6800060
   8.9539106  63.5812751  38.0192833   9.4177451  63.8600454  37.2297456
   8.6895904  62.6796195  37.8365924   5.8463187  63.1284232  40.9572597
   6.4164544  63.5571501  40.3190081   6.4371299  62.8466817  41.6556782
   7.8907992  59.7035903  34.8282399   8.5932035  60.1556947  35.2956325
   7.5588620  59.0619722  35.4562292   6.3388353  58.2947660  49.2033608
   5.7087014  58.9763941  49.4369005   6.2324441  58.1830741  48.2586746
   1.6333326  57.9619456  40.1299532   0.8432380  58.2176984  39.6539643
   2.1244573  58.7767794  40.2351573  15.6497135  65.3024695  42.8804813
  16.4714579  64.9004882  42.5987495  15.6459538  65.1992929  43.8320929
   3.5848071  58.3264035  37.0883009   2.7879234  58.4382729  37.6066504
   3.3573663  58.6650687  36.2223899   9.4153739  64.8508738  45.0365523
   9.4798171  65.3129145  45.8723695   8.7064663  64.2206103  45.1647833
  23.7403128  61.6463443  39.2289784  22.9866837  61.0770841  39.0733789
  23.8750670  61.6126108  40.1760419   9.1301756  66.5176846  34.9044504
   8.9947431  67.3628381  35.3329352   9.6711569  66.7196123  34.1410438
   5.6169096  52.5968426  51.5658859   5.2236042  52.0434624  52.2406503
   6.4335236  52.9079004  51.9565376   2.5831154  64.0352284  35.4772429
   3.0955674  64.8295534  35.6277994   3.2353867  63.3378574  35.4106030
   4.3926039  67.1518040  37.5595182   4.5692667  68.0736005  37.3716166
   5.1882872  66.8376459  37.9889562   8.5337057  54.0126305  49.1579116
   9.2746770  54.6133458  49.0783578   8.7654980  53.2703942  48.5997158
   3.6778395  59.1982672  47.4357345   3.5631910  58.2967929  47.7364444
   2.8222913  59.4446369  47.0842162  10.7570233  67.1400412  49.0344846
  10.3134087  66.3536791  48.7165750  11.4187446  67.3279563  48.3688737
   5.5157354  68.6696214  43.5605524   6.0664779  68.5413277  42.7882518
   4.6768830  68.9691103  43.2100417  12.8551471  67.4203212  47.0626247
  12.8369946  68.2412093  46.5706516  13.7771391  67.2957287  47.2876388
   9.3124525  64.9347342  47.9049755   9.8452862  64.1735630  47.6749063
   8.7838606  64.6420993  48.6473910  12.4794220  50.0407408  43.4343397
  12.1358489  50.9309049  43.3582508  12.8473183  49.8509065  42.5712982
   0.5480071  62.3640938  36.2531999   1.3855293  62.7737946  36.0365707
   0.7258338  61.4240380  36.2232193  12.4444503  60.0316019  31.9415832
  11.9291126  60.8020623  32.1804220  12.1721811  59.3581155  32.5648894
  10.0291614  54.8765719  37.0001071   9.1733210  54.4872570  36.8206709
  10.4418566  54.9557680  36.1400856  11.5590760  52.4112063  41.3992630
  11.0555556  52.3742198  40.5860436  11.8521367  53.3204805  41.4589287
   7.8033646  52.4950792  40.4058812   8.6686643  52.2993601  40.0464702
   7.8711155  52.2661144  41.3328169  17.4178777  62.7848373  33.8769006
  16.6408220  62.4459533  33.4324168  18.0970258  62.7900996  33.2023971
  12.2330806  57.9043111  33.7675613  11.9280942  58.2189260  34.6185757
  13.1861248  57.9824531  33.8102946  10.6777238  64.0633334  35.4168567
  10.1498599  63.3286094  35.1041805  10.1764741  64.8408010  35.1708536
  15.6570084  62.2582355  40.5335614  14.9993758  62.9481616  40.6215742
  16.4610483  62.6478787  40.8769600   5.4095965  54.7253000  37.7775179
   5.9839717  54.5028182  37.0448372   5.9966948  54.7941695  38.5303780
  14.4675543  60.6126727  38.5839556  14.9807424  61.2456719  39.0861265
  15.1176767  60.0127923  38.2182916   5.7365553  56.7557461  31.7971064
   4.9002865  57.0932148  32.1180339   5.5970322  56.6206441  30.8598201
   7.7118633  51.5994249  36.5050248   7.0583045  51.2843266  35.8806863
   7.6699107  50.9769990  37.2310071   8.8229838  61.8813544  28.4203540
   7.9156900  61.6502798  28.6194689   9.3200870  61.0851164  28.6077522
  11.7297917  70.5911052  31.3400227  11.0559616  70.8942748  31.9485184
  12.1163739  71.3940132  30.9905684  10.9456373  58.0876183  40.8297896
  10.0278935  58.3091130  40.6719584  11.3616517  58.1622493  39.9709603
  11.7291421  59.4867599  35.9600576  12.4763240  59.9988996  35.6507698
  11.9983011  59.1651651  36.8204970  10.0018071  61.9826139  32.9427531
   9.0929291  61.6985172  33.0400000  10.0313155  62.4025218  32.0830837
  15.2337339  65.5932729  36.7118698  14.7799666  64.7523639  36.7683889
  14.6031306  66.2294127  37.0493478  14.1770258  56.5224715  37.9419366
  13.4393015  56.0102101  38.2729608  14.4297032  56.0825096  37.1302642
  13.6770278  67.4309225  37.6468516  13.9693252  67.9914283  36.9280882
  14.1868899  67.7237786  38.4021675  14.2781886  49.3000967  38.5361135
  14.5840763  48.4398330  38.2487050  15.0034491  49.8918587  38.3360129
   8.5502965  59.5954760  39.0437326   8.6051575  58.6428596  38.9679803
   7.7394167  59.7514199  39.5278624   9.6994159  63.5234883  30.2815609
   9.2613589  62.8070742  29.8221247  10.4404600  63.7510998  29.7200701
   6.4895325  58.2131820  36.8027705   5.6763191  58.5125990  37.2092897
   6.9854320  57.8187508  37.5202187   8.6403903  68.2089577  38.7361970
   8.5980082  68.4350423  37.8070502   9.5566602  67.9752951  38.8847771
  12.0869537  58.6773644  45.6342599  12.4418925  58.9045117  46.4937064
  12.7341668  59.0092021  45.0119854  17.8167274  61.7992080  36.3391928
  17.6785173  61.9893676  35.4113117  17.4603493  62.5611463  36.7959979
   5.9809400  55.7850175  42.4188940   6.6208779  55.6438934  41.7211903
   5.1486931  55.4984688  42.0427542  17.8436654  63.8668607  41.3503199
  18.2773160  63.7743896  42.1986253  18.5568234  63.8426107  40.7123215
   6.7569704  65.0852606  38.5323932   7.5510303  64.5902926  38.3306507
   6.0461396  64.5570469  38.1691638  11.5764549  67.4670701  42.8836300
  11.6301571  68.0361637  43.6514016  10.7079330  67.6372586  42.5190337
   3.0652468  59.2295687  34.6083685   2.1350056  59.1680143  34.8253647
   3.1609940  58.7071640  33.8120326   2.9838017  55.7550500  37.1961927
   3.2444834  56.6695833  37.0871087   3.8055189  55.2874943  37.3458539
   4.4562942  57.1688257  44.3660751   5.1285995  56.9605619  43.7173400
   3.6292728  56.9710343  43.9265983  10.3588514  53.7950198  46.3826412
   9.7116429  54.4940148  46.2890888  11.1289529  54.2286342  46.7502660
  10.5352648  61.6330963  44.4423232  11.4644708  61.7842123  44.2692199
  10.1143678  61.7214984  43.5871878   9.3340980  65.6581628  42.2121769
   9.1952066  65.2900412  43.0847707   8.5455576  66.1729267  42.0405727
   9.9289132  70.7590724  33.5547306  10.1040888  70.2878767  34.3692929
   9.2421920  71.3856490  33.7828567  10.8846195  65.0363230  39.6010607
  10.5496028  64.9964000  40.4968257  10.3850141  64.3707946  39.1281017
   4.8590439  60.4430860  45.1263188   4.7210237  59.7111099  45.7274727
   5.7695363  60.3539760  44.8447376  13.8205387  62.3819265  29.8747667
  13.2034557  61.6566093  29.7780719  13.3521875  63.1428625  29.5314741
   7.4872740  60.1550820  44.6146868   8.1972358  59.5144012  44.5733486
   7.4442048  60.4063714  45.5373049   6.2001674  57.1416037  46.4342507
   5.6639031  56.6906776  47.0864104   5.6118382  57.2761946  45.6912972
   4.4950217  73.9080087  40.3287166   4.7346816  74.5398611  41.0066185
   3.6519414  73.5568127  40.6152525   5.6103933  56.6004689  28.9968971
   4.7333399  56.4793490  28.6331218   6.0861686  55.8090767  28.7447860
   1.9340795  56.2772045  43.5195502   1.8498984  55.6697715  42.7845912
   1.1123501  56.7681063  43.5204998   9.0078079  69.7159209  42.7328670
   8.9348251  70.5214181  43.2447975   8.5655472  69.9151175  41.9076691
   8.7967859  68.9530979  36.2431492   8.0135381  69.4952659  36.3369716
   9.4960604  69.4704959  36.6425733  12.1064509  54.7625609  38.8865697
  12.6033208  54.0095571  38.5666767  11.3351490  54.7989925  38.3208906
  19.9594266  60.4665974  40.5283988  19.9484143  61.3490690  40.1577922
  19.0911646  60.1137525  40.3338525  11.4676763  69.6146043  44.8886829
  12.1804735  70.2493508  44.8162730  10.9766791  69.7109909  44.0726830
  13.1894290  63.5197296  36.4604120  12.2550568  63.6398758  36.2908825
  13.3670958  62.6169763  36.1964130   8.6899478  56.9042992  38.6137382
   8.3197265  56.3514032  39.3018287   9.1858570  56.3001125  38.0612382
  16.5766841  59.3614615  36.9954154  17.0427293  60.1942607  36.9214457
  17.0274341  58.8959597  37.6999413   6.5188676  67.3640487  45.7092399
   7.2198136  67.9976970  45.8621794   6.0483791  67.7055218  44.9488039
  14.6443072  65.7058436  33.9940307  14.9202916  65.5915031  34.9034181
  13.7747571  65.3075921  33.9552480  14.3189962  59.9185094  43.5344950
  13.6661412  60.1661002  42.8797403  14.6970342  59.1049232  43.2007427
  11.2797136  69.9544787  37.6373120  11.4619531  69.1366443  38.1000872
  12.1030122  70.1712480  37.1998010  11.6139302  68.8812972  34.8988169
  12.1427068  68.3705427  34.2858331  11.8767521  68.5655503  35.7633702
  10.3677535  60.6604905  50.0210987   9.6918172  60.5599035  50.6913362
  11.1905169  60.5044119  50.4846984   2.1156394  66.8976842  42.6423502
   2.7009831  66.1520530  42.7751406   1.9181233  67.2080798  43.5260166
   4.9695049  69.9328089  37.6585945   4.3005425  70.4174217  37.1749985
   4.8307919  70.1797310  38.5729323   9.1100318  71.9671833  44.2568603
   9.6618626  72.1303454  45.0217688   9.4506512  72.5576270  43.5848628
   4.0864811  54.3146982  44.8590488   4.1506138  55.1761813  44.4467885
   4.0231932  53.7020984  44.1262846   3.5617084  56.3870115  48.5063522
   4.1889123  56.0047192  49.1201046   2.7045003  56.1684317  48.8719214
  13.9611192  66.7933090  50.1117257  14.5051096  67.4063048  49.6172212
  13.3798037  67.3512669  50.6284270  12.2468705  69.9153808  41.2432285
  12.1219845  69.1143548  40.7343231  12.9047796  70.4100002  40.7546255
   3.8676874  56.2702541  40.4209425   3.1463459  56.8838508  40.2816899
   4.6570129  56.8060305  40.3426071  14.3103614  67.7162828  42.8711835
  13.3633949  67.5968179  42.7990162  14.6586387  66.8285326  42.9538097
   6.6703187  53.6056967  46.6950077   7.1937589  53.8519264  47.4576386
   6.4515520  54.4377002  46.2753214   2.0670468  55.8760642  34.5621202
   1.7383174  54.9958021  34.3796308   2.4209839  55.8208310  35.4497591
  11.3150047  67.5115544  39.0716187  11.1675009  66.5832252  39.2523757
  12.1403541  67.5335635  38.5873263   5.1812291  56.1633612  34.9296680
   5.5208364  56.6919533  34.2075288   5.6284412  56.5014018  35.7055246
  14.9184169  68.3344103  40.1581060  15.8430716  68.1286965  40.0205511
  14.7499472  68.0860504  41.0670402   7.8755732  54.5470662  44.3799748
   7.5352553  53.7478475  44.7820427   7.1694738  54.8472373  43.8076581
   8.5272204  51.6319975  42.8327071   9.3498273  51.1580453  42.7105961
   8.7710268  52.4110458  43.3325757   7.1680438  54.6608233  33.1289972
   7.8888801  55.0389486  32.6253689   6.5445743  55.3797110  33.2324950
  11.3111561  55.3653382  34.0648305  11.5275176  56.2478020  33.7637133
  10.8305629  54.9739596  33.3353947   6.0510783  58.3239095  40.6419049
   5.9055363  58.6379398  41.5343331   5.5735986  58.9423996  40.0889948
   7.9107166  55.3141643  40.6899939   7.8968734  54.4182737  40.3532237
   8.6279594  55.3212307  41.3238225   9.7633296  55.7478984  42.7353066
   9.5051074  56.6696054  42.7337397   9.2318337  55.3509418  43.4253530
  14.7079485  68.8529771  35.5143152  14.8816363  68.2876193  34.7617004
  15.2008376  69.6530666  35.3322642   7.3144062  54.1956024  35.9587509
   7.4359973  53.2672670  36.1578396   7.0246104  54.2094710  35.0465824
  10.1835252  51.8810934  39.0954229  10.2056949  51.9450267  38.1406208
  10.6003311  51.0415443  39.2894735  20.5618876  61.6166194  37.1333451
  21.0050022  60.8673519  36.7352575  19.6845387  61.6076330  36.7507183
  15.6954658  68.1696535  32.6140050  16.3905562  68.7903228  32.8327365
  16.0377808  67.3191886  32.8892428   1.3122467  59.9914336  46.4736867
   0.5704203  60.1396971  47.0601498   0.9915211  60.2522602  45.6103617
  17.5946081  65.6196241  34.1427381  18.1197405  65.9583513  33.4176701
  17.5068433  64.6843256  33.9590515   9.2566129  69.5330314  46.2717257
   9.5653256  69.2879461  47.1439957  10.0541611  69.7376953  45.7836128
   9.2786741  71.6868224  38.5022634   8.8391732  71.1944603  39.1955491
  10.0294858  71.1441192  38.2614709   1.7579080  67.8779765  38.5047262
   2.5837100  67.5783537  38.1245905   1.4073132  67.1087387  38.9537051
   6.7260614  67.2306233  40.5744936   6.1040623  66.5676938  40.2747163
   7.3965481  67.2567365  39.8918583   6.7985141  55.7088021  50.1677442
   6.8473297  56.5850144  49.7855211   7.3407655  55.1665414  49.5949085
   6.2874121  65.7810156  34.0503396   6.4362241  66.4645621  33.3970069
   7.0940564  65.7615246  34.5652852  14.6941624  59.0852539  48.0770614
  15.5951487  58.9459003  47.7854612  14.7689599  59.2506993  49.0168791
   9.0284430  56.4619393  46.9223800   8.1587739  56.7552959  46.6506389
   9.2643910  57.0459838  47.6431064  20.1051741  63.0871432  39.5255899
  20.9398632  63.5261236  39.6893459  20.2410870  62.6110085  38.7064145
   4.0426753  61.8075334  35.0564465   3.7972795  60.9037664  35.2544675
   4.2122668  61.8092484  34.1143943  11.7323463  52.6799010  44.4389221
  12.2505407  53.4160037  44.1135709  11.3778596  52.9863004  45.2735980
   3.3122401  57.5403692  32.5550626   2.6191646  57.6148046  31.8990662
   3.0674153  56.7764035  33.0772143  11.9836058  49.0999293  39.9590117
  12.2637811  48.4322482  40.5850544  12.7686664  49.2928388  39.4464781
   9.7869526  68.2758287  31.5215143   9.2143493  68.8948474  31.0685615
  10.3602320  68.8257648  32.0555065  15.8544916  57.5216927  43.7061692
  16.8062339  57.6215024  43.7273916  15.6848366  56.7295195  44.2159777
  13.8759295  54.6072510  43.8921093  13.2809227  54.8877523  43.1967582
  13.5908992  55.0966411  44.6637834  13.0066786  68.5595437  32.6523726
  13.9397459  68.4940999  32.8556601  12.9189999  69.3951704  32.1938258
  15.6354802  67.8761307  29.6127673  15.5568434  67.5421171  30.5063431
  16.4564469  68.3683075  29.6119146  10.1716325  59.6119099  28.8631196
  11.1175429  59.4825308  28.9319614   9.7930569  58.8733761  29.3400624
  16.1438209  51.2775106  38.8258088  15.9463030  50.9690194  39.7101420
  16.7537915  52.0036744  38.9556018  10.0555017  63.6636846  50.3231853
  10.9758027  63.8415445  50.5171899  10.0204600  62.7192891  50.1711552
   8.3559242  57.5369076  28.7986081   7.4490697  57.2402189  28.8748795
   8.6335223  57.2398894  27.9320367   3.0517090  61.5737880  42.9654634
   3.2703099  62.5054988  42.9842668   3.4642863  61.2145855  43.7509438
   9.9721307  52.0805966  34.9530322   9.1622036  51.7353051  35.3285569
  10.6605724  51.7713509  35.5417934  11.9011856  51.1584012  36.5754619
  12.4542894  51.5779466  37.2344642  12.1381942  50.2319761  36.6177575
   7.9244955  57.1471086  52.3557383   7.8241682  58.0965443  52.2869474
   7.7066497  56.8189325  51.4833453   7.1258026  54.3956011  28.9398060
   7.9877190  54.7210909  29.1993878   7.3108370  53.6087507  28.4271126
  15.2790663  53.2684538  36.0833283  14.6989332  53.9269342  35.7011336
  15.0126595  52.4461882  35.6720701  13.7294229  52.6689595  38.2854604
  14.2294008  52.7806130  37.4768923  14.3729837  52.3650648  38.9255412
   7.7876225  60.5768225  51.1722445   7.3043307  61.3768585  51.3786334
   7.8737164  60.5876170  50.2189889   1.0562185  62.4096605  39.0944264
   1.0332873  62.5084292  38.1426147   1.3662821  63.2561755  39.4161430
   3.7149562  64.4672760  43.2090878   4.6692816  64.4356702  43.1420810
   3.5162086  64.0063383  44.0241104   4.3048945  63.0373876  45.7761676
   5.1241834  63.5317954  45.7996513   4.5785752  62.1205844  45.7479244
  14.0615541  55.4284628  35.1389632  13.1741396  55.7134279  34.9209826
  14.4769530  55.2678391  34.2916909  17.4130077  55.4531149  38.8543971
  18.1890467  55.9427601  39.1268588  16.6878211  55.8789203  39.3115840
   2.0699791  70.0092379  40.2261076   1.9354259  69.2492780  39.6599074
   1.6531854  70.7333279  39.7589865  13.2058754  65.1929303  29.2337652
  13.9094604  65.3979305  29.8495307  12.4821403  65.7606065  29.4986735
  14.0356565  60.9439164  35.3539922  13.9791766  61.4007715  34.5147554
  14.5884907  60.1829848  35.1762765  17.8461370  56.7328896  36.1790041
  17.5898305  56.3325531  37.0098249  17.2214239  57.4472690  36.0540180
  22.1573708  59.4724969  38.6861333  21.5973266  59.5418158  39.4592895
  21.5517212  59.2965954  37.9660829   5.2268917  70.9061696  40.4379519
   5.1101301  71.8507129  40.3358209   4.4061363  70.6035258  40.8265318
  15.1145452  65.6311832  31.2836112  15.9491056  65.1993030  31.1013586
  14.9529795  65.4593846  32.2113006  14.7691344  62.1343945  32.6492451
  14.7140148  61.9688217  31.7080895  14.1437399  62.8419978  32.8054641
  12.0837251  64.4392857  51.9746014  12.9528411  64.6133509  51.6132649
  11.6044003  65.2587274  51.8521743   8.0787469  51.6352054  32.2277769
   8.0666139  52.5793894  32.3846040   8.9710891  51.4522200  31.9337231
   6.2523431  71.5589958  43.6535447   7.1550678  71.5913568  43.9701942
   6.0260801  70.6290409  43.6681783   8.0077033  70.3120945  40.3145526
   7.0572664  70.3122806  40.2009898   8.3109519  69.5653679  39.7981561
  11.8939589  48.2294831  36.4823706  11.1271985  47.6753317  36.6280389
  12.3050294  48.3016700  37.3437858   3.8981350  54.5179627  50.5728887
   4.7612811  54.1616431  50.7832212   3.3246761  54.1793521  51.2604292
  23.7429727  76.1481483  41.3791288  24.3808137  76.0288230  40.6754628
  23.6250570  77.0962327  41.4379241  20.5519433  76.1008911  41.3152813
  20.2137945  75.9849976  40.4273348  21.4209201  75.7000076  41.2953819
  16.4106249  77.9544387  37.3049704  15.8471114  77.8634324  36.5365992
  16.2958644  77.1344292  37.7852197  21.0339216  77.2543763  47.2739019
  21.0227857  76.8596561  46.4019522  21.1959856  76.5209835  47.8672790
  13.9570681  79.4495579  40.1433925  14.7491973  79.1086404  39.7280224
  14.1967331  79.5590554  41.0636078  21.9905807  81.6215355  32.6164169
  21.3393787  82.2069436  32.2298183  22.7850170  82.1521550  32.6759206
  15.9161435  78.7104492  33.0151303  16.6892311  78.1633479  32.8764179
  16.2686833  79.5748742  33.2265765  17.7546477  80.0380875  46.2218203
  17.4636343  80.9426505  46.1064869  18.3903462  80.0797402  46.9362272
  18.6802684  77.4157723  42.8119562  19.2766256  77.1913745  42.0976525
  18.7377656  76.6742469  43.4145010  18.2527712  74.8697158  30.6469753
  18.5053233  74.3478680  29.8853216  17.3152272  74.7063304  30.7496437
  23.2970995  73.8732937  38.4544496  24.0834084  73.4552360  38.1034913
  23.5609700  74.7779029  38.6226145  23.4681073  79.3105787  33.1533153
  22.8326906  79.3840414  33.8654058  23.1378479  79.8999386  32.4752233
  28.6979422  73.8108170  39.3577475  29.4304594  73.2407387  39.5915304
  27.9418778  73.4229770  39.7983981  17.9724001  76.7725264  32.8494128
  17.8560259  76.0970168  33.5175213  18.0826261  76.2857638  32.0326281
  20.3155542  76.2335411  36.5540817  19.9513749  75.7066032  37.2653739
  21.1722658  75.8433881  36.3807303  19.9561029  71.2625311  31.5502166
  20.1235431  72.1305548  31.9172637  19.7658198  71.4252593  30.6263455
  22.7136362  79.7242290  43.2167996  22.4137085  80.6267329  43.1083804
  22.3687422  79.4574473  44.0689149  16.1648844  76.1756087  39.2504701
  15.2399340  76.0432301  39.4582393  16.4133257  76.9550306  39.7474643
  26.1133506  72.2424830  40.8965434  25.2050383  72.1740239  40.6024195
  26.0621102  72.7196775  41.7247259  19.9350250  73.7182969  32.5348833
  19.8149875  74.1640019  33.3734313  19.2402838  74.0668286  31.9762371
  13.5257655  75.8189360  40.0848490  13.6550036  76.0723839  40.9987902
  12.8455106  76.4117068  39.7653145  17.6957142  86.4886610  36.1838964
  17.6181172  87.4394436  36.2627445  17.0918786  86.1432483  36.8413890
  20.1874372  73.6614476  48.8400331  19.4107706  74.2208396  48.8303196
  20.8264935  74.1471259  49.3615201  27.9795152  70.4441269  42.6743308
  27.3369533  70.7373802  42.0283102  27.4750081  70.3294189  43.4796504
  25.6335316  74.1904442  33.3629167  26.5453172  74.4231829  33.1876864
  25.1244963  74.7741486  32.8004245  18.4420744  76.4699929  48.4018298
  19.1835429  77.0084973  48.1253122  17.7357730  77.0966218  48.5589850
  23.9176084  78.6129070  46.9990459  24.3259440  78.1711480  46.2545092
  23.1953345  78.0381697  47.2524652  20.2707154  73.5501676  44.3724016
  21.1168349  73.9741090  44.5158665  20.2105792  72.8935301  45.0662579
  24.2404898  79.1730260  40.7542748  23.6113761  79.3375974  40.0518816
  23.8530561  79.5871870  41.5253712  28.1194130  80.1084698  38.1087112
  27.4345168  80.4883600  37.5584145  28.2037980  80.7180025  38.8419060
  23.4206599  71.2106045  46.0305190  23.1767531  71.9648105  45.4939466
  23.6966530  71.5891392  46.8652437  25.3745062  77.7544657  44.7082456
  25.5861957  78.3976417  44.0316837  25.3274810  76.9206974  44.2404386
  22.9771291  70.3662478  41.6119028  22.1155770  70.6643731  41.9035765
  23.0033726  70.5832877  40.6800060  19.7932860  78.9104668  38.0192833
  20.2571206  79.1892371  37.2297456  19.5289658  78.0088113  37.8365924
  16.6856941  78.4576150  40.9572597  17.2558298  78.8863418  40.3190081
  17.2765053  78.1758735  41.6556782  18.7301746  75.0327821  34.8282399
  19.4325790  75.4848864  35.2956325  18.3982375  74.3911640  35.4562292
  17.1782108  73.6239577  49.2033608  16.5480768  74.3055858  49.4369005
  17.0718196  73.5122659  48.2586746  12.4727080  73.2911373  40.1299532
  11.6826134  73.5468902  39.6539643  12.9638328  74.1059711  40.2351573
  26.4890890  80.6316613  42.8804813  27.3108334  80.2296800  42.5987495
  26.4853293  80.5284847  43.8320929  14.4241826  73.6555953  37.0883009
  13.6272989  73.7674647  37.6066504  14.1967418  73.9942605  36.2223899
  20.2547493  80.1800656  45.0365523  20.3191926  80.6421063  45.8723695
  19.5458417  79.5498021  45.1647833  10.7564783  73.5441864  42.5614523
  11.0072822  74.4288874  42.8272099  11.2924332  73.3646465  41.7889615
  34.5796883  76.9755361  39.2289784  33.8260591  76.4062759  39.0733789
  34.7144424  76.9418026  40.1760419  19.9695511  81.8468763  34.9044504
  19.8341186  82.6920299  35.3329352  20.5105323  82.0488041  34.1410438
  16.4562851  67.9260343  51.5658859  16.0629796  67.3726542  52.2406503
  17.2728991  68.2370922  51.9565376  13.4224908  79.3644201  35.4772429
  13.9349429  80.1587452  35.6277994  14.0747621  78.6670492  35.4106030
  15.2319793  82.4809958  37.5595182  15.4086421  83.4027922  37.3716166
  16.0276627  82.1668377  37.9889562  14.5172150  74.5274590  47.4357345
  14.4025665  73.6259847  47.7364444  13.6616667  74.7738286  47.0842162
  21.5963987  82.4692330  49.0344846  21.1527842  81.6828708  48.7165750
  22.2581201  82.6571480  48.3688737  16.3551109  83.9988131  43.5605524
  16.9058534  83.8705195  42.7882518  15.5162584  84.2983020  43.2100417
  23.6945225  82.7495130  47.0626247  23.6763701  83.5704011  46.5706516
  24.6165145  82.6249205  47.2876388  20.1518280  80.2639259  47.9049755
  20.6846616  79.5027547  47.6749063  19.6232361  79.9712911  48.6473910
  11.3873825  77.6932856  36.2531999  12.2249047  78.1029864  36.0365707
  11.5652093  76.7532298  36.2232193  23.2838257  75.3607936  31.9415832
  22.7684881  76.1312541  32.1804220  23.0115566  74.6873073  32.5648894
  20.8685368  70.2057637  37.0001071  20.0126965  69.8164488  36.8206709
  21.2812320  70.2849598  36.1400856  22.3984515  67.7403980  41.3992630
  21.8949311  67.7034116  40.5860436  22.6915122  68.6496723  41.4589287
  18.6427401  67.8242710  40.4058812  19.5080398  67.6285519  40.0464702
  18.7104910  67.5953062  41.3328169  28.2572531  78.1140291  33.8769006
  27.4801974  77.7751451  33.4324168  28.9364012  78.1192914  33.2023971
  23.0724560  73.2335028  33.7675613  22.7674696  73.5481178  34.6185757
  24.0255003  73.3116448  33.8102946  21.5170992  79.3925252  35.4168567
  20.9892354  78.6578011  35.1041805  21.0158495  80.1699928  35.1708536
  26.4963838  77.5874272  40.5335614  25.8387513  78.2773534  40.6215742
  27.3004238  77.9770704  40.8769600  16.2489720  70.0544918  37.7775179
  16.8233472  69.8320100  37.0448372  16.8360702  70.1233613  38.5303780
  25.3069297  75.9418645  38.5839556  25.8201179  76.5748637  39.0861265
  25.9570521  75.3419840  38.2182916  16.5759307  72.0849379  31.7971064
  15.7396619  72.4224066  32.1180339  16.4364077  71.9498359  30.8598201
  18.5512388  66.9286167  36.5050248  17.8976800  66.6135184  35.8806863
  18.5092862  66.3061907  37.2310071  19.6623592  77.2105462  28.4203540
  18.7550654  76.9794715  28.6194689  20.1594624  76.4143081  28.6077522
  22.5691671  85.9202969  31.3400227  21.8953370  86.2234666  31.9485184
  22.9557493  86.7232050  30.9905684  21.7850128  73.4168101  40.8297896
  20.8672689  73.6383048  40.6719584  22.2010272  73.4914411  39.9709603
  22.5685176  74.8159516  35.9600576  23.3156995  75.3280913  35.6507698
  22.8376765  74.4943569  36.8204970  20.8411826  77.3118057  32.9427531
  19.9323045  77.0277090  33.0400000  20.8706910  77.7317135  32.0830837
  25.0164013  71.8516632  37.9419366  24.2786770  71.3394019  38.2729608
  25.2690786  71.4117014  37.1302642  24.5164033  82.7601143  37.6468516
  24.8087007  83.3206200  36.9280882  25.0262653  83.0529704  38.4021675
  25.1175640  64.6292884  38.5361135  25.4234517  63.7690248  38.2487050
  25.8428245  65.2210505  38.3360129  11.4099996  75.0323571  36.9242733
  11.2124396  74.4392932  36.1993799  10.8546660  74.7275781  37.6418672
  19.3896720  74.9246678  39.0437326  19.4445330  73.9720514  38.9679803
  18.5787922  75.0806117  39.5278624  20.5387914  78.8526801  30.2815609
  20.1007344  78.1362660  29.8221247  21.2798355  79.0802915  29.7200701
  17.3289080  73.5423737  36.8027705  16.5156945  73.8417908  37.2092897
  17.8248074  73.1479426  37.5202187  19.4797658  83.5381494  38.7361970
  19.4373837  83.7642340  37.8070502  20.3960357  83.3044869  38.8847771
  22.9263292  74.0065562  45.6342599  23.2812679  74.2337035  46.4937064
  23.5735423  74.3383939  45.0119854  28.6561029  77.1283998  36.3391928
  28.5178927  77.3185594  35.4113117  28.2997247  77.8903380  36.7959979
  16.8203155  71.1142093  42.4188940  17.4602534  70.9730852  41.7211903
  15.9880685  70.8276606  42.0427542  28.6830408  79.1960525  41.3503199
  29.1166915  79.1035814  42.1986253  29.3961989  79.1718025  40.7123215
  17.5963459  80.4144523  38.5323932  18.3904057  79.9194843  38.3306507
  16.8855151  79.8862386  38.1691638  22.4158303  82.7962619  42.8836300
  22.4695325  83.3653555  43.6514016  21.5473084  82.9664504  42.5190337
  13.9046222  74.5587605  34.6083685  12.9743810  74.4972060  34.8253647
  14.0003694  74.0363558  33.8120326  13.8231771  71.0842418  37.1961927
  14.0838588  71.9987751  37.0871087  14.6448943  70.6166860  37.3458539
  15.2956696  72.4980175  44.3660751  15.9679750  72.2897537  43.7173400
  14.4686483  72.3002261  43.9265983  29.5445958  79.2384225  43.8836085
  29.7381848  80.1430036  44.1295360  29.4446576  78.7791644  44.7174670
  24.6061066  79.3890968  49.4576965  24.4546573  79.1601520  48.5407049
  24.5965746  80.3461569  49.4708310  21.3746403  76.9622881  44.4423232
  22.3038463  77.1134040  44.2692199  20.9537433  77.0506902  43.5871878
  20.1734735  80.9873545  42.2121769  20.0345820  80.6192330  43.0847707
  19.3849331  81.5021185  42.0405727  20.7682887  86.0882642  33.5547306
  20.9434642  85.6170685  34.3692929  20.0815675  86.7148408  33.7828567
  21.7239950  80.3655148  39.6010607  21.3889782  80.3255918  40.4968257
  21.2243895  79.6999864  39.1281017  15.6984194  75.7722778  45.1263188
  15.5603992  75.0403017  45.7274727  16.6089117  75.6831678  44.8447376
  24.6599141  77.7111182  29.8747667  24.0428312  76.9858010  29.7780719
  24.1915630  78.4720543  29.5314741  18.3266494  75.4842737  44.6146868
  19.0366113  74.8435929  44.5733486  18.2835802  75.7355632  45.5373049
  26.3153273  82.4210091  47.5353447  26.2565819  81.7369311  46.8684030
  26.7172791  83.1629081  47.0834073  17.0395428  72.4707955  46.4342507
  16.5032785  72.0198694  47.0864104  16.4512137  72.6053864  45.6912972
  15.3343972  89.2372004  40.3287166  15.5740570  89.8690529  41.0066185
  14.4913168  88.8860044  40.6152525  16.4497687  71.9296607  28.9968971
  15.5727154  71.8085407  28.6331218  16.9255440  71.1382685  28.7447860
  26.3170680  80.3849675  45.7667427  25.4297459  80.0475596  45.8893826
  26.8869231  79.6532706  46.0036192   7.9699827  76.7173766  39.0910478
   8.6570867  76.4035496  38.5031493   7.8147956  77.6215131  38.8177730
  12.7734550  71.6063963  43.5195502  12.6892738  70.9989632  42.7845912
  11.9517256  72.0972981  43.5204998  19.8471834  85.0451127  42.7328670
  19.7742005  85.8506098  43.2447975  19.4049227  85.2443093  41.9076691
  19.6361613  84.2822897  36.2431492  18.8529135  84.8244577  36.3369716
  20.3354358  84.7996877  36.6425733  22.9458263  70.0917526  38.8865697
  23.4426963  69.3387489  38.5666767  22.1745245  70.1281843  38.3208906
  30.7988021  75.7957892  40.5283988  30.7877897  76.6782607  40.1577922
  29.9305400  75.4429443  40.3338525  22.3070517  84.9437961  44.8886829
  23.0198489  85.5785426  44.8162730  21.8160546  85.0401827  44.0726830
  24.0288044  78.8489214  36.4604120  23.0944323  78.9690676  36.2908825
  24.2064713  77.9461680  36.1964130  19.5293232  72.2334909  38.6137382
  19.1591020  71.6805950  39.3018287  20.0252325  71.6293043  38.0612382
  27.4160595  74.6906533  36.9954154  27.8821048  75.5234524  36.9214457
  27.8668096  74.2251514  37.6999413  17.3582431  82.6932404  45.7092399
  18.0591890  83.3268887  45.8621794  16.8877546  83.0347136  44.9488039
  25.4836827  81.0350354  33.9940307  25.7596670  80.9206949  34.9034181
  24.6141325  80.6367839  33.9552480  25.3877258  67.0587120  41.0345056
  24.4740338  67.2891347  41.2027263  25.8170360  67.1425564  41.8859088
  25.1583717  75.2477012  43.5344950  24.5055167  75.4952919  42.8797403
  25.5364097  74.4341150  43.2007427  22.1190891  85.2836705  37.6373120
  22.3013285  84.4658361  38.1000872  22.9423877  85.5004397  37.1998010
  22.4533056  84.2104890  34.8988169  22.9820822  83.6997345  34.2858331
  22.7161276  83.8947420  35.7633702  21.2071290  75.9896823  50.0210987
  20.5311927  75.8890952  50.6913362  22.0298924  75.8336037  50.4846984
  12.9550149  82.2268759  42.6423502  13.5403586  81.4812447  42.7751406
  12.7574987  82.5372716  43.5260166  15.8088804  85.2620007  37.6585945
  15.1399179  85.7466134  37.1749985  15.6701674  85.5089227  38.5729323
   7.5467804  74.7974360  41.3627945   7.5851903  74.2637950  42.1565063
   7.0408096  74.2709565  40.7438922  19.9494073  87.2963750  44.2568603
  20.5012381  87.4595372  45.0217688  20.2900266  87.8868188  43.5848628
  14.9258566  69.6438900  44.8590488  14.9899892  70.5053731  44.4467885
  14.8625686  69.0312902  44.1262846  14.4010838  71.7162033  48.5063522
  15.0282877  71.3339110  49.1201046  13.5438757  71.4976235  48.8719214
  24.8004947  82.1225008  50.1117257  25.3444851  82.7354966  49.6172212
  24.2191792  82.6804586  50.6284270  11.1776381  73.5238462  34.4381877
  11.4729822  72.6149140  34.3848930  10.2764417  73.5026201  34.1162879
  23.0862460  85.2445726  41.2432285  22.9613599  84.4435466  40.7343231
  23.7441551  85.7391919  40.7546255  14.7070628  71.5994458  40.4209425
  13.9857214  72.2130426  40.2816899  15.4963884  72.1352223  40.3426071
  25.1497368  83.0454746  42.8711835  24.2027704  82.9260097  42.7990162
  25.4980141  82.1577244  42.9538097  12.9064223  71.2052559  34.5621202
  12.5776929  70.3249938  34.3796308  13.2603593  71.1500228  35.4497591
  22.1543802  82.8407462  39.0716187  22.0068764  81.9124170  39.2523757
  22.9797295  82.8627553  38.5873263  16.0206046  71.4925529  34.9296680
  16.3602118  72.0211450  34.2075288  16.4678166  71.8305935  35.7055246
  25.7577923  83.6636021  40.1581060  26.6824471  83.4578882  40.0205511
  25.5893227  83.4152422  41.0670402  19.3665958  66.9611892  42.8327071
  20.1892028  66.4872371  42.7105961  19.6104022  67.7402376  43.3325757
  18.0074193  69.9900151  33.1289972  18.7282555  70.3681404  32.6253689
  17.3839497  70.7089028  33.2324950  22.1505316  70.6945300  34.0648305
  22.3668930  71.5769938  33.7637133  21.6699383  70.3031513  33.3353947
  16.8904537  73.6531013  40.6419049  16.7449118  73.9671316  41.5343331
  16.4129741  74.2715913  40.0889948  18.7500920  70.6433561  40.6899939
  18.7362489  69.7474654  40.3532237  19.4673348  70.6504225  41.3238225
  20.6027051  71.0770901  42.7353066  20.3444829  71.9987972  42.7337397
  20.0712091  70.6801336  43.4253530  25.5473240  84.1821688  35.5143152
  25.7210117  83.6168111  34.7617004  26.0402131  84.9822583  35.3322642
  11.3650199  76.1936357  43.5806710  10.8203667  76.9696165  43.7126985
  12.2429549  76.5407162  43.4225832  18.1537816  69.5247941  35.9587509
  18.2753727  68.5964587  36.1578396  17.8639858  69.5386627  35.0465824
  21.0229006  67.2102852  39.0954229  21.0450703  67.2742185  38.1406208
  21.4397065  66.3707360  39.2894735  31.4012631  76.9458111  37.1333451
  31.8443777  76.1965436  36.7352575  30.5239141  76.9368248  36.7507183
  26.5348412  83.4988453  32.6140050  27.2299317  84.1195145  32.8327365
  26.8771562  82.6483804  32.8892428  12.1516221  75.3206254  46.4736867
  11.4097957  75.4688889  47.0601498  11.8308966  75.5814519  45.6103617
  28.4339835  80.9488158  34.1427381  28.9591159  81.2875431  33.4176701
  28.3462188  80.0135174  33.9590515  20.0959884  84.8622232  46.2717257
  20.4047010  84.6171379  47.1439957  20.8935366  85.0668870  45.7836128
  20.1180496  87.0160142  38.5022634  19.6785486  86.5236520  39.1955491
  20.8688613  86.4733109  38.2614709  12.5972835  83.2071682  38.5047262
  13.4230855  82.9075454  38.1245905  12.2466887  82.4379305  38.9537051
  17.5654368  82.5598151  40.5744936  16.9434377  81.8968856  40.2747163
  18.2359235  82.5859283  39.8918583  10.7981440  81.1258009  39.4636196
   9.9613348  80.6980183  39.2820197  10.7705085  81.3190452  40.4006987
  28.1233741  81.5821062  49.4478579  27.3329285  81.5645201  48.9083078
  27.8867096  82.1209356  50.2027615  28.2431616  78.4313528  46.7611307
  28.2929621  78.2663536  47.7026830  28.1345540  77.5640787  46.3709188
  17.1267875  81.1102074  34.0503396  17.2755995  81.7937538  33.3970069
  17.9334318  81.0907164  34.5652852  25.5335379  74.4144456  48.0770614
  26.4345241  74.2750921  47.7854612  25.6083353  74.5798911  49.0168791
  29.7449813  80.8510470  47.0053329  29.4534621  81.2140450  47.8416790
  29.1321944  80.1377478  46.8266661  30.9445495  78.4163350  39.5255899
  31.7792387  78.8553154  39.6893459  31.0804624  77.9402003  38.7064145
  27.9937001  75.9743084  45.4733387  28.4691123  76.1670731  44.6652238
  27.0702567  76.0302270  45.2276770  14.8820508  77.1367252  35.0564465
  14.6366550  76.2329582  35.2544675  15.0516423  77.1384402  34.1143943
  22.5717218  68.0090928  44.4389221  23.0899162  68.7451955  44.1135709
  22.2172351  68.3154921  45.2735980  14.1516156  72.8695609  32.5550626
  13.4585400  72.9439964  31.8990662  13.9067907  72.1055953  33.0772143
  22.8229812  64.4291211  39.9590117  23.1031566  63.7614400  40.5850544
  23.6080419  64.6220306  39.4464781  20.6263281  83.6050204  31.5215143
  20.0537248  84.2240392  31.0685615  21.1996074  84.1549566  32.0555065
  26.6938670  72.8508845  43.7061692  27.6456093  72.9506942  43.7273916
  26.5242121  72.0587113  44.2159777  24.7153050  69.9364428  43.8921093
  24.1202982  70.2169440  43.1967582  24.4302747  70.4258329  44.6637834
  23.8460540  83.8887355  32.6523726  24.7791213  83.8232916  32.8556601
  23.7583753  84.7243621  32.1938258  26.4748557  83.2053225  29.6127673
  26.3962189  82.8713088  30.5063431  27.2958224  83.6974993  29.6119146
  29.1726748  76.0714964  42.8203992  29.1403068  75.1330965  43.0063676
  29.7827372  76.1499001  42.0869817  21.0110079  74.9411017  28.8631196
  21.9569184  74.8117225  28.9319614  20.6324324  74.2025679  29.3400624
  29.3221237  72.8626008  42.8662275  28.8060285  72.0784464  42.6792204
  30.2061185  72.5344724  43.0308795  26.9831964  66.6067023  38.8258088
  26.7856785  66.2982111  39.7101420  27.5931669  67.3328662  38.9556018
  34.9903298  77.1330971  41.9610029  35.7206686  76.8716259  42.5217732
  34.3810243  76.3959693  42.0012097  33.0718595  75.2738834  42.5584480
  32.3451759  75.1394799  41.9500972  32.6565882  75.5815662  43.3641198
  20.8948772  78.9928763  50.3231853  21.8151781  79.1707362  50.5171899
  20.8598355  78.0484809  50.1711552  19.1952996  72.8660994  28.7986081
  18.2884452  72.5694106  28.8748795  19.4728977  72.5690812  27.9320367
  10.1130937  74.1867357  39.2485128   9.7933721  73.3332665  38.9559502
   9.5664365  74.4015935  40.0043095  13.8910844  76.9029798  42.9654634
  14.1096854  77.8346906  42.9842668  14.3036618  76.5437772  43.7509438
  20.8115062  67.4097883  34.9530322  20.0015790  67.0644968  35.3285569
  21.4999479  67.1005427  35.5417934  22.7405610  66.4875930  36.5754619
  23.2936649  66.9071383  37.2344642  22.9775697  65.5611678  36.6177575
  18.7638709  72.4763004  52.3557383  18.6635436  73.4257361  52.2869474
  18.5460251  72.1481243  51.4833453  17.9651781  69.7247929  28.9398060
  18.8270945  70.0502827  29.1993878  18.1502125  68.9379425  28.4271126
   9.9819197  77.8070268  41.2178249   9.2882668  77.3924221  40.7048204
  10.7292188  77.8490805  40.6211668  26.1184417  68.5976455  36.0833283
  25.5383086  69.2561259  35.7011336  25.8520350  67.7753800  35.6720701
  24.5687984  67.9981513  38.2854604  25.0687762  68.1098047  37.4768923
  25.2123592  67.6942566  38.9255412  18.6269979  75.9060143  51.1722445
  18.1437061  76.7060503  51.3786334  18.7130919  75.9168087  50.2189889
  11.8955939  77.7388522  39.0944264  11.8726627  77.8376210  38.1426147
  12.2056576  78.5853673  39.4161430  14.5543317  79.7964677  43.2090878
  15.5086571  79.7648620  43.1420810  14.3555841  79.3355301  44.0241104
  15.1442699  78.3665793  45.7761676  15.9635588  78.8609872  45.7996513
  15.4179507  77.4497761  45.7479244  24.9009295  70.7576546  35.1389632
  24.0135150  71.0426196  34.9209826  25.3163284  70.5970309  34.2916909
  28.2523831  70.7823067  38.8543971  29.0284222  71.2719519  39.1268588
  27.5271966  71.2081121  39.3115840  30.6896390  71.4950686  39.9117912
  31.2840881  71.2546422  39.2011220  30.7622974  70.7757816  40.5391448
  12.9093546  85.3384297  40.2261076  12.7748014  84.5784698  39.6599074
  12.4925608  86.0625197  39.7589865  24.0452509  80.5221220  29.2337652
  24.7488359  80.7271223  29.8495307  23.3215158  81.0897982  29.4986735
  24.8750319  76.2731082  35.3539922  24.8185520  76.7299633  34.5147554
  25.4278662  75.5121766  35.1762765  28.6855125  72.0620813  36.1790041
  28.4292059  71.6617449  37.0098249  28.0607993  72.7764607  36.0540180
  32.9967463  74.8016887  38.6861333  32.4367021  74.8710076  39.4592895
  32.3910966  74.6257871  37.9660829  16.0662672  86.2353614  40.4379519
  15.9495056  87.1799046  40.3358209  15.2455118  85.9327175  40.8265318
  25.9539206  80.9603749  31.2836112  26.7884810  80.5284948  31.1013586
  25.7923549  80.7885763  32.2113006  25.6085098  77.4635863  32.6492451
  25.5533902  77.2980134  31.7080895  24.9831154  78.1711896  32.8054641
  10.3977613  72.7003927  46.4753873  11.0436477  72.1902881  46.9641098
  10.1894764  73.4372609  47.0497298  22.9231006  79.7684775  51.9746014
  23.7922165  79.9425427  51.6132649  22.4437757  80.5879191  51.8521743
  18.9181224  66.9643972  32.2277769  18.9059894  67.9085812  32.3846040
  19.8104646  66.7814117  31.9337231  17.0917186  86.8881876  43.6535447
  17.9944432  86.9205486  43.9701942  16.8654556  85.9582327  43.6681783
  18.8470788  85.6412862  40.3145526  17.8966419  85.6414724  40.2009898
  19.1503274  84.8945597  39.7981561  22.7333343  63.5586748  36.4823706
  21.9665739  63.0045235  36.6280389  23.1444048  63.6308617  37.3437858
  14.7375104  69.8471544  50.5728887  15.6006566  69.4908349  50.7832212
  14.1640515  69.5085439  51.2604292  34.5823481  91.4773401  41.3791288
  35.2201891  91.3580148  40.6754628  34.4644324  92.4254245  41.4379241
  31.3913188  91.4300829  41.3152813  31.0531699  91.3141893  40.4273348
  32.2602956  91.0291994  41.2953819  27.2500003  93.2836305  37.3049704
  26.6864868  93.1926242  36.5365992  27.1352398  92.4636210  37.7852197
  31.8732971  92.5835680  47.2739019  31.8621611  92.1888479  46.4019522
  32.0353610  91.8501753  47.8672790  24.7964435  94.7787497  40.1433925
  25.5885727  94.4378321  39.7280224  25.0361085  94.8882472  41.0636078
  32.8299562  96.9507273  32.6164169  32.1787542  97.5361353  32.2298183
  33.6243925  97.4813468  32.6759206  26.7555189  94.0396410  33.0151303
  27.5286065  93.4925397  32.8764179  27.1080588  94.9040659  33.2265765
  28.5940232  95.3672792  46.2218203  28.3030098  96.2718423  46.1064869
  29.2297216  95.4089320  46.9362272  29.5196439  92.7449641  42.8119562
  30.1160011  92.5205663  42.0976525  29.5771410  92.0034386  43.4145010
  29.0921467  90.1989076  30.6469753  29.3446988  89.6770597  29.8853216
  28.1546026  90.0355222  30.7496437  34.1364750  89.2024854  38.4544496
  34.9227839  88.7844278  38.1034913  34.4003454  90.1070947  38.6226145
  34.3074827  94.6397705  33.1533153  33.6720660  94.7132331  33.8654058
  33.9772234  95.2291304  32.4752233  39.5373177  89.1400088  39.3577475
  40.2698349  88.5699304  39.5915304  38.7812533  88.7521688  39.7983981
  28.8117756  92.1017182  32.8494128  28.6954014  91.4262085  33.5175213
  28.9220016  91.6149556  32.0326281  31.1549297  91.5627329  36.5540817
  30.7907504  91.0357950  37.2653739  32.0116413  91.1725798  36.3807303
  37.0598597  82.8521662  43.8172084  36.7281922  83.7217073  43.5933299
  36.4644211  82.5357946  44.4966114  30.7954784  86.5917229  31.5502166
  30.9629186  87.4597465  31.9172637  30.6051953  86.7544511  30.6263455
  33.5530117  95.0534208  43.2167996  33.2530840  95.9559247  43.1083804
  33.2081176  94.7866391  44.0689149  27.0042598  91.5048005  39.2504701
  26.0793095  91.3724219  39.4582393  27.2527011  92.2842224  39.7474643
  36.9527261  87.5716748  40.8965434  36.0444138  87.5032156  40.6024195
  36.9014856  88.0488693  41.7247259  30.7744004  89.0474886  32.5348833
  30.6543630  89.4931937  33.3734313  30.0796593  89.3960204  31.9762371
  24.3651409  91.1481278  40.0848490  24.4943790  91.4015757  40.9987902
  23.6848861  91.7408986  39.7653145  31.0268126  88.9906394  48.8400331
  30.2501460  89.5500314  48.8303196  31.6658689  89.4763177  49.3615201
  38.8188907  85.7733186  42.6743308  38.1763287  86.0665719  42.0283102
  38.3143835  85.6586107  43.4796504  36.4729071  89.5196360  33.3629167
  37.3846927  89.7523746  33.1876864  35.9638718  90.1033404  32.8004245
  29.2814499  91.7991847  48.4018298  30.0229183  92.3376891  48.1253122
  28.5751484  92.4258136  48.5589850  34.7569838  93.9420987  46.9990459
  35.1653194  93.5003398  46.2545092  34.0347100  93.3673615  47.2524652
  31.1100908  88.8793594  44.3724016  31.9562104  89.3033008  44.5158665
  31.0499546  88.2227218  45.0662579  35.0798653  94.5022178  40.7542748
  34.4507515  94.6667892  40.0518816  34.6924315  94.9163788  41.5253712
  38.9587885  95.4376616  38.1087112  38.2738923  95.8175517  37.5584145
  39.0431734  96.0471942  38.8419060  34.2600354  86.5397962  46.0305190
  34.0161286  87.2940023  45.4939466  34.5360284  86.9183310  46.8652437
  36.2138816  93.0836575  44.7082456  36.4255712  93.7268335  44.0316837
  36.1668565  92.2498891  44.2404386  33.8165045  85.6954395  41.6119028
  32.9549524  85.9935649  41.9035765  33.8427480  85.9124794  40.6800060
  30.6326615  94.2396586  38.0192833  31.0964960  94.5184289  37.2297456
  30.3683413  93.3380031  37.8365924  27.5250696  93.7868068  40.9572597
  28.0952053  94.2155336  40.3190081  28.1158808  93.5050652  41.6556782
  29.5695501  90.3619738  34.8282399  30.2719544  90.8140782  35.2956325
  29.2376129  89.7203557  35.4562292  28.0175862  88.9531495  49.2033608
  27.3874523  89.6347776  49.4369005  27.9111950  88.8414577  48.2586746
  23.3120835  88.6203291  40.1299532  22.5219889  88.8760820  39.6539643
  23.8032082  89.4351629  40.2351573  37.3284644  95.9608530  42.8804813
  38.1502088  95.5588718  42.5987495  37.3247047  95.8576764  43.8320929
  25.2635580  88.9847870  37.0883009  24.4666743  89.0966565  37.6066504
  25.0361172  89.3234523  36.2223899  31.0941248  95.5092574  45.0365523
  31.1585680  95.9712981  45.8723695  30.3852172  94.8789938  45.1647833
  21.5958538  88.8733782  42.5614523  21.8466576  89.7580791  42.8272099
  22.1318086  88.6938383  41.7889615  45.4190637  92.3047279  39.2289784
  44.6654346  91.7354677  39.0733789  45.5538179  92.2709943  40.1760419
  30.8089265  97.1760681  34.9044504  30.6734940  98.0212217  35.3329352
  31.3499078  97.3779959  34.1410438  27.2956605  83.2552261  51.5658859
  26.9023551  82.7018459  52.2406503  28.1122745  83.5662839  51.9565376
  24.2618663  94.6936119  35.4772429  24.7743183  95.4879369  35.6277994
  24.9141376  93.9962410  35.4106030  30.2124566  84.6710140  49.1579116
  30.9534279  85.2717293  49.0783578  30.4442489  83.9287778  48.5997158
  25.3565904  89.8566507  47.4357345  25.2419419  88.9551764  47.7364444
  24.5010422  90.1030204  47.0842162  32.4357742  97.7984248  49.0344846
  31.9921596  97.0120626  48.7165750  33.0974955  97.9863398  48.3688737
  27.1944863  99.3280049  43.5605524  27.7452288  99.1997113  42.7882518
  26.3556339  99.6274938  43.2100417  34.5338980  98.0787047  47.0626247
  34.5157455  98.8995929  46.5706516  35.4558900  97.9541123  47.2876388
  30.9912034  95.5931177  47.9049755  31.5240371  94.8319465  47.6749063
  30.4626115  95.3004829  48.6473910  34.1581729  80.6991243  43.4343397
  33.8145998  81.5892885  43.3582508  34.5260692  80.5092901  42.5712982
  22.2267580  93.0224773  36.2531999  23.0642802  93.4321782  36.0365707
  22.4045847  92.0824216  36.2232193  34.1232012  90.6899854  31.9415832
  33.6078635  91.4604459  32.1804220  33.8509320  90.0164990  32.5648894
  31.7079123  85.5349555  37.0001071  30.8520719  85.1456405  36.8206709
  32.1206075  85.6141516  36.1400856  33.2378269  83.0695898  41.3992630
  32.7343065  83.0326033  40.5860436  33.5308876  83.9788641  41.4589287
  29.4821155  83.1534628  40.4058812  30.3474152  82.9577436  40.0464702
  29.5498664  82.9244980  41.3328169  39.0966286  93.4432209  33.8769006
  38.3195729  93.1043368  33.4324168  39.7757767  93.4484832  33.2023971
  33.9118315  88.5626946  33.7675613  33.6068451  88.8773095  34.6185757
  34.8648757  88.6408366  33.8102946  32.3564747  94.7217169  35.4168567
  31.8286108  93.9869929  35.1041805  31.8552250  95.4991846  35.1708536
  37.3357593  92.9166190  40.5335614  36.6781267  93.6065451  40.6215742
  38.1397992  93.3062622  40.8769600  27.0883474  85.3836836  37.7775179
  27.6627226  85.1612017  37.0448372  27.6754457  85.4525530  38.5303780
  36.1463052  91.2710563  38.5839556  36.6594933  91.9040554  39.0861265
  36.7964275  90.6711758  38.2182916  27.4153062  87.4141297  31.7971064
  26.5790374  87.7515983  32.1180339  27.2757831  87.2790277  30.8598201
  29.3906142  82.2578085  36.5050248  28.7370554  81.9427102  35.8806863
  29.3486616  81.6353825  37.2310071  30.5017347  92.5397380  28.4203540
  29.5944409  92.3086633  28.6194689  30.9988379  91.7434999  28.6077522
  33.4085426 101.2494887  31.3400227  32.7347125 101.5526584  31.9485184
  33.7951248 102.0523967  30.9905684  32.6243882  88.7460018  40.8297896
  31.7066444  88.9674965  40.6719584  33.0404026  88.8206329  39.9709603
  33.4078930  90.1451434  35.9600576  34.1550749  90.6572831  35.6507698
  33.6770520  89.8235487  36.8204970  31.6805580  92.6409975  32.9427531
  30.7716800  92.3569007  33.0400000  31.7100664  93.0609053  32.0830837
  36.9124848  96.2516564  36.7118698  36.4587175  95.4107474  36.7683889
  36.2818815  96.8877962  37.0493478  35.8557767  87.1808550  37.9419366
  35.1180524  86.6685936  38.2729608  36.1084541  86.7408932  37.1302642
  35.3557787  98.0893061  37.6468516  35.6480761  98.6498118  36.9280882
  35.8656408  98.3821622  38.4021675  35.9569395  79.9584802  38.5361135
  36.2628272  79.0982166  38.2487050  36.6822000  80.5502422  38.3360129
  22.2493751  90.3615489  36.9242733  22.0518151  89.7684849  36.1993799
  21.6940415  90.0567699  37.6418672  30.2290474  90.2538595  39.0437326
  30.2839084  89.3012432  38.9679803  29.4181676  90.4098034  39.5278624
  31.3781668  94.1818718  30.2815609  30.9401098  93.4654577  29.8221247
  32.1192109  94.4094833  29.7200701  28.1682834  88.8715655  36.8027705
  27.3550700  89.1709825  37.2092897  28.6641829  88.4771344  37.5202187
  30.3191412  98.8673412  38.7361970  30.2767591  99.0934258  37.8070502
  31.2354111  98.6336786  38.8847771  33.7657046  89.3357479  45.6342599
  34.1206434  89.5628953  46.4937064  34.4129177  89.6675856  45.0119854
  39.4954783  92.4575915  36.3391928  39.3572682  92.6477511  35.4113117
  39.1391002  93.2195298  36.7959979  27.6596909  86.4434010  42.4188940
  28.2996288  86.3022770  41.7211903  26.8274440  86.1568524  42.0427542
  39.5224163  94.5252442  41.3503199  39.9560669  94.4327731  42.1986253
  40.2355743  94.5009943  40.7123215  28.4357213  95.7436441  38.5323932
  29.2297812  95.2486761  38.3306507  27.7248905  95.2154304  38.1691638
  33.2552058  98.1254536  42.8836300  33.3089080  98.6945473  43.6514016
  32.3866839  98.2956421  42.5190337  24.7439976  89.8879523  34.6083685
  23.8137565  89.8263978  34.8253647  24.8397448  89.3655475  33.8120326
  24.6625526  86.4134335  37.1961927  24.9232343  87.3279669  37.0871087
  25.4842698  85.9458778  37.3458539  26.1350451  87.8272093  44.3660751
  26.8073504  87.6189455  43.7173400  25.3080237  87.6294179  43.9265983
  40.3839712  94.5676143  43.8836085  40.5775602  95.4721953  44.1295360
  40.2840330  94.1083562  44.7174670  32.0376023  84.4534034  46.3826412
  31.3903938  85.1523983  46.2890888  32.8077038  84.8870177  46.7502660
  35.4454821  94.7182886  49.4576965  35.2940327  94.4893437  48.5407049
  35.4359500  95.6753487  49.4708310  32.2140157  92.2914798  44.4423232
  33.1432217  92.4425958  44.2692199  31.7931187  92.3798819  43.5871878
  31.0128489  96.3165463  42.2121769  30.8739575  95.9484247  43.0847707
  30.2243085  96.8313102  42.0405727  32.5633704  95.6947066  39.6010607
  32.2283537  95.6547836  40.4968257  32.0637650  95.0291781  39.1281017
  26.5377948  91.1014696  45.1263188  26.3997746  90.3694934  45.7274727
  27.4482872  91.0123596  44.8447376  35.4992896  93.0403100  29.8747667
  34.8822066  92.3149928  29.7780719  35.0309384  93.8012460  29.5314741
  29.1660249  90.8134655  44.6146868  29.8759867  90.1727847  44.5733486
  29.1229557  91.0647550  45.5373049  37.1547027  97.7502008  47.5353447
  37.0959574  97.0661228  46.8684030  37.5566546  98.4920998  47.0834073
  27.8789183  87.7999873  46.4342507  27.3426540  87.3490611  47.0864104
  27.2905891  87.9345782  45.6912972  27.2891442  87.2588524  28.9968971
  26.4120908  87.1377325  28.6331218  27.7649195  86.4674603  28.7447860
  37.1564435  95.7141592  45.7667427  36.2691214  95.3767514  45.8893826
  37.7262986  94.9824623  46.0036192  18.8093582  92.0465684  39.0910478
  19.4964622  91.7327414  38.5031493  18.6541711  92.9507049  38.8177730
  23.6128304  86.9355880  43.5195502  23.5286493  86.3281550  42.7845912
  22.7911010  87.4264899  43.5204998  30.6865588 100.3743045  42.7328670
  30.6135760 101.1798016  43.2447975  30.2442981 100.5735010  41.9076691
  30.4755368  99.6114815  36.2431492  29.6922890 100.1536495  36.3369716
  31.1748113 100.1288794  36.6425733  33.7852018  85.4209444  38.8865697
  34.2820717  84.6679406  38.5666767  33.0138999  85.4573761  38.3208906
  41.6381775  91.1249810  40.5283988  41.6271652  92.0074525  40.1577922
  40.7699155  90.7721360  40.3338525  33.1464272 100.2729879  44.8886829
  33.8592244 100.9077343  44.8162730  32.6554300 100.3693745  44.0726830
  34.8681799  94.1781131  36.4604120  33.9338077  94.2982594  36.2908825
  35.0458467  93.2753598  36.1964130  30.3686987  87.5626827  38.6137382
  29.9984774  87.0097867  39.3018287  30.8646079  86.9584960  38.0612382
  38.2554350  90.0198451  36.9954154  38.7214802  90.8526442  36.9214457
  38.7061850  89.5543432  37.6999413  28.1976185  98.0224322  45.7092399
  28.8985645  98.6560805  45.8621794  27.7271300  98.3639054  44.9488039
  36.3230581  96.3642272  33.9940307  36.5990425  96.2498866  34.9034181
  35.4535080  95.9659757  33.9552480  36.2271013  82.3879038  41.0345056
  35.3134092  82.6183264  41.2027263  36.6564114  82.4717482  41.8859088
  35.9977471  90.5768929  43.5344950  35.3448921  90.8244837  42.8797403
  36.3757851  89.7633068  43.2007427  32.9584645 100.6128623  37.6373120
  33.1407040  99.7950279  38.1000872  33.7817631 100.8296315  37.1998010
  33.2926811  99.5396808  34.8988169  33.8214577  99.0289262  34.2858331
  33.5555030  99.2239338  35.7633702  32.0465044  91.3188741  50.0210987
  31.3705681  91.2182870  50.6913362  32.8692678  91.1627954  50.4846984
  23.7943903  97.5560677  42.6423502  24.3797340  96.8104365  42.7751406
  23.5968742  97.8664634  43.5260166  18.3861558  90.1266277  41.3627945
  18.4245658  89.5929868  42.1565063  17.8801851  89.6001483  40.7438922
  25.7652320  84.9730818  44.8590488  25.8293647  85.8345649  44.4467885
  25.7019441  84.3604819  44.1262846  25.2404593  87.0453950  48.5063522
  25.8676632  86.6631028  49.1201046  24.3832512  86.8268152  48.8719214
  35.6398701  97.4516926  50.1117257  36.1838605  98.0646884  49.6172212
  35.0585546  98.0096504  50.6284270  22.0170136  88.8530379  34.4381877
  22.3123577  87.9441058  34.3848930  21.1158171  88.8318119  34.1162879
  33.9256214 100.5737644  41.2432285  33.8007354  99.7727383  40.7343231
  34.5835305 101.0683837  40.7546255  25.5464383  86.9286376  40.4209425
  24.8250968  87.5422344  40.2816899  26.3357638  87.4644141  40.3426071
  35.9891123  98.3746664  42.8711835  35.0421458  98.2552015  42.7990162
  36.3373896  97.4869162  42.9538097  28.3490696  84.2640803  46.6950077
  28.8725098  84.5103099  47.4576386  28.1303029  85.0960837  46.2753214
  23.7457977  86.5344477  34.5621202  23.4170683  85.6541856  34.3796308
  24.0997348  86.4792146  35.4497591  32.9937556  98.1699380  39.0716187
  32.8462518  97.2416087  39.2523757  33.8191050  98.1919471  38.5873263
  26.8599800  86.8217447  34.9296680  27.1995873  87.3503368  34.2075288
  27.3071921  87.1597853  35.7055246  36.5971678  98.9927939  40.1581060
  37.5218225  98.7870800  40.0205511  36.4286981  98.7444340  41.0670402
  29.5543241  85.2054498  44.3799748  29.2140062  84.4062311  44.7820427
  28.8482247  85.5056208  43.8076581  30.2059713  82.2903810  42.8327071
  31.0285782  81.8164288  42.7105961  30.4497776  83.0694294  43.3325757
  28.8467947  85.3192068  33.1289972  29.5676310  85.6973321  32.6253689
  28.2233252  86.0380945  33.2324950  32.9899070  86.0237217  34.0648305
  33.2062685  86.9061855  33.7637133  32.5093137  85.6323431  33.3353947
  27.7298292  88.9822931  40.6419049  27.5842872  89.2963234  41.5343331
  27.2523495  89.6007831  40.0889948  29.5894675  85.9725479  40.6899939
  29.5756243  85.0766572  40.3532237  30.3067103  85.9796142  41.3238225
  31.4420805  86.4062819  42.7353066  31.1838583  87.3279890  42.7337397
  30.9105846  86.0093253  43.4253530  36.3866994  99.5113606  35.5143152
  36.5603872  98.9460028  34.7617004  36.8795885 100.3114501  35.3322642
  22.2043954  91.5228275  43.5806710  21.6597422  92.2988083  43.7126985
  23.0823304  91.8699080  43.4225832  28.9931571  84.8539859  35.9587509
  29.1147482  83.9256505  36.1578396  28.7033613  84.8678545  35.0465824
  31.8622761  82.5394769  39.0954229  31.8844458  82.6034102  38.1406208
  32.2790820  81.6999278  39.2894735  42.2406385  92.2750029  37.1333451
  42.6837531  91.5257354  36.7352575  41.3632896  92.2660165  36.7507183
  37.3742167  98.8280370  32.6140050  38.0693071  99.4487063  32.8327365
  37.7165317  97.9775722  32.8892428  22.9909976  90.6498171  46.4736867
  22.2491712  90.7980807  47.0601498  22.6702720  90.9106437  45.6103617
  39.2733590  96.2780076  34.1427381  39.7984914  96.6167349  33.4176701
  39.1855942  95.3427091  33.9590515  30.9353638 100.1914150  46.2717257
  31.2440765  99.9463296  47.1439957  31.7329120 100.3960788  45.7836128
  23.4366589  98.5363600  38.5047262  24.2624609  98.2367372  38.1245905
  23.0860641  97.7671223  38.9537051  28.4048123  97.8890068  40.5744936
  27.7828132  97.2260773  40.2747163  29.0752989  97.9151200  39.8918583
  21.6375194  96.4549927  39.4636196  20.8007103  96.0272101  39.2820197
  21.6098840  96.6482370  40.4006987  28.4772650  86.3671856  50.1677442
  28.5260806  87.2433979  49.7855211  29.0195164  85.8249249  49.5949085
  38.9627496  96.9112980  49.4478579  38.1723039  96.8937118  48.9083078
  38.7260850  97.4501273  50.2027615  39.0825371  93.7605446  46.7611307
  39.1323376  93.5955453  47.7026830  38.9739294  92.8932705  46.3709188
  27.9661629  96.4393992  34.0503396  28.1149750  97.1229456  33.3970069
  28.7728073  96.4199082  34.5652852  36.3729133  89.7436374  48.0770614
  37.2738996  89.6042839  47.7854612  36.4477108  89.9090829  49.0168791
  30.7071939  87.1203229  46.9223800  29.8375248  87.4136795  46.6506389
  30.9431419  87.7043674  47.6431064  40.5843568  96.1802387  47.0053329
  40.2928376  96.5432368  47.8416790  39.9715699  95.4669396  46.8266661
  41.7839250  93.7455267  39.5255899  42.6186141  94.1845071  39.6893459
  41.9198379  93.2693920  38.7064145  38.8330756  91.3035002  45.4733387
  39.3084877  91.4962648  44.6652238  37.9096321  91.3594188  45.2276770
  25.7214262  92.4659169  35.0564465  25.4760304  91.5621499  35.2544675
  25.8910177  92.4676320  34.1143943  33.4110972  83.3382846  44.4389221
  33.9292916  84.0743873  44.1135709  33.0566105  83.6446839  45.2735980
  24.9909910  88.1987527  32.5550626  24.2979155  88.2731882  31.8990662
  24.7461662  87.4347870  33.0772143  33.6623567  79.7583128  39.9590117
  33.9425320  79.0906317  40.5850544  34.4474173  79.9512224  39.4464781
  31.4657035  98.9342122  31.5215143  30.8931002  99.5532309  31.0685615
  32.0389829  99.4841484  32.0555065  37.5332425  88.1800762  43.7061692
  38.4849848  88.2798860  43.7273916  37.3635875  87.3879031  44.2159777
  35.5546804  85.2656345  43.8921093  34.9596736  85.5461358  43.1967582
  35.2696501  85.7550246  44.6637834  34.6854295  99.2179272  32.6523726
  35.6184968  99.1524834  32.8556601  34.5977508 100.0535539  32.1938258
  37.3142311  98.5345143  29.6127673  37.2355943  98.2005006  30.5063431
  38.1351978  99.0266910  29.6119146  40.0120503  91.4006882  42.8203992
  39.9796823  90.4622883  43.0063676  40.6221126  91.4790919  42.0869817
  31.8503834  90.2702935  28.8631196  32.7962938  90.1409143  28.9319614
  31.4718078  89.5317597  29.3400624  40.1614991  88.1917925  42.8662275
  39.6454040  87.4076382  42.6792204  41.0454940  87.8636642  43.0308795
  37.8225718  81.9358941  38.8258088  37.6250539  81.6274029  39.7101420
  38.4325424  82.6620580  38.9556018  45.8297053  92.4622889  41.9610029
  46.5600441  92.2008177  42.5217732  45.2203998  91.7251611  42.0012097
  43.9112350  90.6030751  42.5584480  43.1845513  90.4686716  41.9500972
  43.4959637  90.9107580  43.3641198  31.7342526  94.3220681  50.3231853
  32.6545536  94.4999280  50.5171899  31.6992109  93.3776726  50.1711552
  30.0346751  88.1952911  28.7986081  29.1278206  87.8986024  28.8748795
  30.3122732  87.8982729  27.9320367  20.9524691  89.5159275  39.2485128
  20.6327475  88.6624583  38.9559502  20.4058119  89.7307853  40.0043095
  24.7304599  92.2321716  42.9654634  24.9490608  93.1638823  42.9842668
  25.1430372  91.8729690  43.7509438  31.6508816  82.7389801  34.9530322
  30.8409545  82.3936886  35.3285569  32.3393233  82.4297345  35.5417934
  33.5799365  81.8167848  36.5754619  34.1330403  82.2363301  37.2344642
  33.8169451  80.8903596  36.6177575  29.6032464  87.8054921  52.3557383
  29.5029191  88.7549278  52.2869474  29.3854006  87.4773160  51.4833453
  28.8045535  85.0539846  28.9398060  29.6664699  85.3794745  29.1993878
  28.9895879  84.2671342  28.4271126  20.8212951  93.1362186  41.2178249
  20.1276422  92.7216139  40.7048204  21.5685942  93.1782723  40.6211668
  36.9578172  83.9268373  36.0833283  36.3776841  84.5853177  35.7011336
  36.6914104  83.1045718  35.6720701  35.4081738  83.3273431  38.2854604
  35.9081517  83.4389965  37.4768923  36.0517346  83.0234483  38.9255412
  29.4663734  91.2352060  51.1722445  28.9830816  92.0352420  51.3786334
  29.5524673  91.2460005  50.2189889  22.7349694  93.0680440  39.0944264
  22.7120382  93.1668127  38.1426147  23.0450330  93.9145591  39.4161430
  25.3937071  95.1256595  43.2090878  26.3480325  95.0940537  43.1420810
  25.1949595  94.6647219  44.0241104  25.9836454  93.6957711  45.7761676
  26.8029343  94.1901790  45.7996513  26.2573261  92.7789679  45.7479244
  35.7403050  86.0868463  35.1389632  34.8528905  86.3718114  34.9209826
  36.1557039  85.9262227  34.2916909  39.0917586  86.1114984  38.8543971
  39.8677976  86.6011437  39.1268588  38.3665720  86.5373038  39.3115840
  41.5290145  86.8242603  39.9117912  42.1234635  86.5838339  39.2011220
  41.6016728  86.1049734  40.5391448  34.8846263  95.8513138  29.2337652
  35.5882113  96.0563140  29.8495307  34.1608912  96.4189900  29.4986735
  35.7144074  91.6022999  35.3539922  35.6579275  92.0591551  34.5147554
  36.2672416  90.8413684  35.1762765  39.5248879  87.3912731  36.1790041
  39.2685814  86.9909367  37.0098249  38.9001747  88.1056525  36.0540180
  43.8361217  90.1308804  38.6861333  43.2760775  90.2001994  39.4592895
  43.2304721  89.9549789  37.9660829  36.7932961  96.2895667  31.2836112
  37.6278565  95.8576866  31.1013586  36.6317304  96.1177681  32.2113006
  36.4478853  92.7927780  32.6492451  36.3927657  92.6272052  31.7080895
  35.8224908  93.5003813  32.8054641  21.2371368  88.0295845  46.4753873
  21.8830231  87.5194799  46.9641098  21.0288519  88.7664526  47.0497298
  33.7624760  95.0976692  51.9746014  34.6315920  95.2717345  51.6132649
  33.2831512  95.9171109  51.8521743  29.7574978  82.2935889  32.2277769
  29.7453648  83.2377729  32.3846040  30.6498400  82.1106035  31.9337231
  33.5727098  78.8878666  36.4823706  32.8059494  78.3337153  36.6280389
  33.9837803  78.9600535  37.3437858  25.5768859  85.1763462  50.5728887
  26.4400320  84.8200267  50.7832212  25.0034269  84.8377357  51.2604292
  44.9758504 104.5316772  38.4544496  45.7621593 104.1136195  38.1034913
  45.2397209 105.4362864  38.6226145  50.3766931 104.4692005  39.3577475
  51.1092103 103.8991222  39.5915304  49.6206287 104.0813606  39.7983981
  47.8992352  98.1813579  43.8172084  47.5675677  99.0508990  43.5933299
  47.3037965  97.8649863  44.4966114  41.6348538 101.9209147  31.5502166
  41.8022940 102.7889383  31.9172637  41.4445707 102.0836428  30.6263455
  47.7921015 102.9008666  40.8965434  46.8837892 102.8324074  40.6024195
  47.7408611 103.3780611  41.7247259  41.6137759 104.3766804  32.5348833
  41.4937384 104.8223855  33.3734313  40.9190347 104.7252122  31.9762371
  41.8661881 104.3198311  48.8400331  41.0895215 104.8792231  48.8303196
  42.5052444 104.8055094  49.3615201  49.6582661 101.1025104  42.6743308
  49.0157042 101.3957637  42.0283102  49.1537590 100.9878024  43.4796504
  47.3122825 104.8488277  33.3629167  48.2240681 105.0815664  33.1876864
  46.8032472 105.4325321  32.8004245  41.9494663 104.2085512  44.3724016
  42.7955858 104.6324925  44.5158665  41.8893300 103.5519136  45.0662579
  45.0994108 101.8689880  46.0305190  44.8555040 102.6231941  45.4939466
  45.3754039 102.2475228  46.8652437  44.6558800 101.0246313  41.6119028
  43.7943279 101.3227567  41.9035765  44.6821235 101.2416712  40.6800060
  56.2584392 107.6339196  39.2289784  55.5048100 107.0646594  39.0733789
  56.3931933 107.6001861  40.1760419  38.1350360  98.5844179  51.5658859
  37.7417305  98.0310377  52.2406503  38.9516500  98.8954757  51.9565376
  41.0518321 100.0002058  49.1579116  41.7928034 100.6009211  49.0783578
  41.2836243  99.2579695  48.5997158  44.9975484  96.0283161  43.4343397
  44.6539753  96.9184802  43.3582508  45.3654446  95.8384818  42.5712982
  42.5472877 100.8641472  37.0001071  41.6914474 100.4748323  36.8206709
  42.9599829 100.9433433  36.1400856  44.0772024  98.3987816  41.3992630
  43.5736820  98.3617951  40.5860436  44.3702631  99.3080558  41.4589287
  40.3214910  98.4826545  40.4058812  41.1867907  98.2869354  40.0464702
  40.3892419  98.2536897  41.3328169  44.7512069 103.8918864  33.7675613
  44.4462205 104.2065013  34.6185757  45.7042512 103.9700284  33.8102946
  37.9277229 100.7128753  37.7775179  38.5020981 100.4903935  37.0448372
  38.5148211 100.7817448  38.5303780  46.9856806 106.6002480  38.5839556
  47.4988688 107.2332472  39.0861265  47.6358030 106.0003676  38.2182916
  38.2546816 102.7433214  31.7971064  37.4184128 103.0807901  32.1180339
  38.1151586 102.6082194  30.8598201  40.2299897  97.5870002  36.5050248
  39.5764309  97.2719019  35.8806863  40.1880371  96.9645743  37.2310071
  43.4637637 104.0751936  40.8297896  42.5460198 104.2966883  40.6719584
  43.8797781 104.1498246  39.9709603  44.2472685 105.4743352  35.9600576
  44.9944504 105.9864749  35.6507698  44.5164274 105.1527404  36.8204970
  46.6951522 102.5100468  37.9419366  45.9574279 101.9977854  38.2729608
  46.9478295 102.0700849  37.1302642  46.7963149  95.2876720  38.5361135
  47.1022026  94.4274083  38.2487050  47.5215754  95.8794340  38.3360129
  44.6050801 104.6649397  45.6342599  44.9600188 104.8920870  46.4937064
  45.2522932 104.9967774  45.0119854  38.4990664 101.7725928  42.4188940
  39.1390043 101.6314687  41.7211903  37.6668194 101.4860442  42.0427542
  35.5019280 101.7426253  37.1961927  35.7626097 102.6571586  37.0871087
  36.3236452 101.2750696  37.3458539  36.9744205 103.1564010  44.3660751
  37.6467259 102.9481372  43.7173400  36.1473992 102.9586096  43.9265983
  42.8769777  99.7825951  46.3826412  42.2297692 100.4815901  46.2890888
  43.6470793 100.2162095  46.7502660  38.7182937 103.1291790  46.4342507
  38.1820294 102.6782529  47.0864104  38.1299646 103.2637699  45.6912972
  38.1285196 102.5880442  28.9968971  37.2514663 102.4669243  28.6331218
  38.6042949 101.7966520  28.7447860  44.6245772 100.7501362  38.8865697
  45.1214472  99.9971324  38.5666767  43.8532754 100.7865678  38.3208906
  52.4775530 106.4541727  40.5283988  52.4665406 107.3366443  40.1577922
  51.6092909 106.1013278  40.3338525  41.2080741 102.8918745  38.6137382
  40.8378529 102.3389785  39.3018287  41.7039834 102.2876878  38.0612382
  49.0948104 105.3490368  36.9954154  49.5608557 106.1818360  36.9214457
  49.5455605 104.8835350  37.6999413  47.0664767  97.7170955  41.0345056
  46.1527847  97.9475182  41.2027263  47.4957869  97.8009399  41.8859088
  46.8371226 105.9060847  43.5344950  46.1842676 106.1536755  42.8797403
  47.2151606 105.0924985  43.2007427  36.6046075 100.3022735  44.8590488
  36.6687401 101.1637566  44.4467885  36.5413195  99.6896737  44.1262846
  36.0798347 102.3745868  48.5063522  36.7070386 101.9922945  49.1201046
  35.2226266 102.1560070  48.8719214  36.3858137 102.2578294  40.4209425
  35.6644723 102.8714261  40.2816899  37.1751393 102.7936059  40.3426071
  39.1884451  99.5932720  46.6950077  39.7118852  99.8395017  47.4576386
  38.9696784 100.4252755  46.2753214  34.5851732 101.8636395  34.5621202
  34.2564438 100.9833774  34.3796308  34.9391102 101.8084063  35.4497591
  37.6993555 102.1509365  34.9296680  38.0389627 102.6795286  34.2075288
  38.1465675 102.4889771  35.7055246  40.3936996 100.5346415  44.3799748
  40.0533816  99.7354228  44.7820427  39.6876002 100.8348126  43.8076581
  41.0453467  97.6195728  42.8327071  41.8679537  97.1456206  42.7105961
  41.2891531  98.3986211  43.3325757  39.6861702 100.6483986  33.1289972
  40.4070064 101.0265239  32.6253689  39.0627006 101.3672863  33.2324950
  43.8292825 101.3529135  34.0648305  44.0456439 102.2353773  33.7637133
  43.3486892 100.9615349  33.3353947  40.4288429 101.3017396  40.6899939
  40.4149998 100.4058490  40.3532237  41.1460857 101.3088060  41.3238225
  42.2814560 101.7354737  42.7353066  42.0232338 102.6571807  42.7337397
  41.7499600 101.3385171  43.4253530  39.8325325 100.1831777  35.9587509
  39.9541236  99.2548423  36.1578396  39.5427367 100.1970463  35.0465824
  42.7016515  97.8686687  39.0954229  42.7238212  97.9326020  38.1406208
  43.1184574  97.0291196  39.2894735  53.0800140 107.6041947  37.1333451
  53.5231286 106.8549272  36.7352575  52.2026650 107.5952083  36.7507183
  39.3166405 101.6963774  50.1677442  39.3654560 102.5725897  49.7855211
  39.8588919 101.1541167  49.5949085  47.2122888 105.0728292  48.0770614
  48.1132750 104.9334757  47.7854612  47.2870862 105.2382746  49.0168791
  41.5465693 102.4495146  46.9223800  40.6769002 102.7428712  46.6506389
  41.7825173 103.0335591  47.6431064  49.6724510 106.6326920  45.4733387
  50.1478632 106.8254566  44.6652238  48.7490076 106.6886106  45.2276770
  44.2504727  98.6674763  44.4389221  44.7686671  99.4035790  44.1135709
  43.8959860  98.9738757  45.2735980  44.5017321  95.0875046  39.9590117
  44.7819075  94.4198235  40.5850544  45.2867928  95.2804141  39.4464781
  48.3726179 103.5092680  43.7061692  49.3243602 103.6090778  43.7273916
  48.2029630 102.7170948  44.2159777  46.3940559 100.5948263  43.8921093
  45.7990491 100.8753276  43.1967582  46.1090256 101.0842164  44.6637834
  50.8514257 106.7298800  42.8203992  50.8190577 105.7914800  43.0063676
  51.4614881 106.8082836  42.0869817  51.0008746 103.5209843  42.8662275
  50.4847794 102.7368300  42.6792204  51.8848694 103.1928560  43.0308795
  48.6619473  97.2650859  38.8258088  48.4644294  96.9565947  39.7101420
  49.2719178  97.9912497  38.9556018  56.6690807 107.7914806  41.9610029
  57.3994195 107.5300095  42.5217732  56.0597752 107.0543528  42.0012097
  54.7506104 105.9322669  42.5584480  54.0239268 105.7978634  41.9500972
  54.3353391 106.2399498  43.3641198  40.8740505 103.5244829  28.7986081
  39.9671961 103.2277942  28.8748795  41.1516486 103.2274647  27.9320367
  42.4902571  98.0681719  34.9530322  41.6803299  97.7228804  35.3285569
  43.1786988  97.7589262  35.5417934  44.4193119  97.1459765  36.5754619
  44.9724158  97.5655219  37.2344642  44.6563206  96.2195514  36.6177575
  40.4426218 103.1346839  52.3557383  40.3422945 104.0841196  52.2869474
  40.2247760 102.8065078  51.4833453  39.6439290 100.3831764  28.9398060
  40.5058454 100.7086662  29.1993878  39.8289634  99.5963260  28.4271126
  47.7971926  99.2560291  36.0833283  47.2170595  99.9145095  35.7011336
  47.5307859  98.4337635  35.6720701  46.2475493  98.6565348  38.2854604
  46.7475271  98.7681883  37.4768923  46.8911101  98.3526401  38.9255412
  46.5796804 101.4160381  35.1389632  45.6922659 101.7010032  34.9209826
  46.9950793 101.2554144  34.2916909  49.9311340 101.4406902  38.8543971
  50.7071731 101.9303354  39.1268588  49.2059475 101.8664956  39.3115840
  52.3683899 102.1534521  39.9117912  52.9628390 101.9130257  39.2011220
  52.4410483 101.4341652  40.5391448  50.3642634 102.7204649  36.1790041
  50.1079568 102.3201284  37.0098249  49.7395502 103.4348443  36.0540180
  54.6754972 105.4600722  38.6861333  54.1154530 105.5293911  39.4592895
  54.0698475 105.2841707  37.9660829  40.5968733  97.6227807  32.2277769
  40.5847403  98.5669647  32.3846040  41.4892155  97.4397953  31.9337231
  44.4120852  94.2170584  36.4823706  43.6453248  93.6629070  36.6280389
  44.8231557  94.2892453  37.3437858  36.4162613 100.5055380  50.5728887
  37.2794075 100.1492184  50.7832212  35.8428024 100.1669274  51.2604292
  55.2514607 109.5462501  36.4823706  54.4847003 108.9920988  36.6280389
  55.6625312 109.6184370  37.3437858   2.0642219  22.4959770  28.1036595
   2.7020629  22.3766518  27.3999935   1.9463062  23.4440614  28.1624547
   1.0348855  26.0720577  29.9413303   0.7349578  26.9745616  29.8329110
   0.6899914  25.8052761  30.7934456   2.2388576  24.9607357  33.7235766
   2.6471932  24.5189767  32.9790398   1.5165838  24.3859984  33.9769959
   2.5617391  25.5208548  27.4788055   1.9326253  25.6854262  26.7764123
   2.1743053  25.9350157  28.2499019   6.4406623  26.4562985  24.8332419
   5.7557661  26.8361887  24.2829452   6.5250472  27.0658312  25.5664366
   1.7419091  17.5584332  32.7550497   1.4980023  18.3126393  32.2184772
   2.0179022  17.9369680  33.5897744   3.6957554  24.1022944  31.4327762
   3.9074449  24.7454704  30.7562143   3.6487302  23.2685261  30.9649692
   4.8103382  26.9794900  29.6050120   5.6320826  26.5775087  29.3232801
   4.8065785  26.8763134  30.5566235  12.9009375  23.3233648  25.9535091
  12.1473084  22.7541046  25.7979095  13.0356916  23.2896313  26.9005726
   2.0157718  29.0973417  33.7871554   1.9976193  29.9182298  33.2951823
   2.9377638  28.9727492  34.0121695   4.8176331  23.9352560  27.2580920
   4.1600005  24.6251821  27.3461049   5.6216730  24.3248991  27.6014907
   2.8376525  29.1079430  24.3713823   3.1299499  29.6684487  23.6526189
   3.3475145  29.4007991  25.1266982   1.2475784  20.3543849  32.3587905
   1.6025172  20.5815322  33.2182371   1.8947915  20.6862226  31.7365161
   7.0042900  25.5438812  28.0748506   7.4379407  25.4514101  28.9231560
   7.7174481  25.5196312  27.4368522   7.8658450  25.5862513  30.6081391
   8.0594340  26.4908323  30.8540666   7.7659068  25.1269932  31.4419976
   2.9273559  25.7369255  36.1822272   2.7759065  25.5079807  35.2652356
   2.9178238  26.6939857  36.1953617   4.6365765  28.7688378  34.2598754
   4.5778311  28.0847598  33.5929337   5.0385284  29.5107368  33.8079380
   4.6383173  26.7327962  32.4912733   3.7509951  26.3953884  32.6139132
   5.2081724  26.0010993  32.7281499   9.1200513  22.1436179  27.2529295
   9.1090389  23.0260895  26.8823228   8.2517893  21.7907730  27.0583832
   3.4796209  21.5955299  30.2590256   2.8267659  21.8431206  29.6042709
   3.8576589  20.7819437  29.9252734   3.1217439  28.4703295  36.8362564
   3.6657343  29.0833253  36.3417519   2.5404284  29.0282873  37.3529577
   1.4074952  31.5924013  27.9677592   1.2826092  30.7913753  27.4588537
   2.0654043  32.0870206  27.4791562   3.4709861  29.3933033  29.5957142
   2.5240196  29.2738384  29.5235469   3.8192634  28.5055531  29.6783403
   4.0790416  30.0114308  26.8826367   5.0036963  29.8057169  26.7450818
   3.9105719  29.7630709  27.7915708   6.4446234  27.9299349  36.1723885
   5.6541777  27.9123488  35.6328385   6.2079588  28.4687643  36.9272922
   6.5644109  24.7791816  33.4856614   6.6142114  24.6141823  34.4272137
   6.4558032  23.9119075  33.0954495   8.0662305  27.1988757  33.7298635
   7.7747114  27.5618738  34.5662096   7.4534437  26.4855765  33.5511967
   9.2657988  24.7641637  26.2501206  10.1004879  25.2031441  26.4138766
   9.4017117  24.2880290  25.4309451   6.3149494  22.3221372  32.1978693
   6.7903615  22.5149018  31.3897545   5.3915059  22.3780557  31.9522077
   5.0151163  19.1987132  30.4306999   5.9668586  19.2985229  30.4519223
   4.8454613  18.4065400  30.9405083   7.4939240  22.4193251  29.5449299
   7.4615561  21.4809252  29.7308982   8.1039864  22.4977288  28.8115123
   7.6433729  19.2104295  29.5907582   7.1272778  18.4262752  29.4037511
   8.5273677  18.8823011  29.7554101  13.3115790  23.4809258  28.6855335
  14.0419179  23.2194546  29.2463039  12.7022736  22.7437980  28.7257403
  11.3931087  21.6217121  29.2829787  10.6664251  21.4873086  28.6746278
  10.9778374  21.9293949  30.0886505  11.3179955  21.1495174  25.4106639
  10.7579513  21.2188363  26.1838201  10.7123458  20.9736159  24.6906136
   1.2443498  26.1163062  38.6991320   2.1134657  26.2903714  38.3377955
   0.7650249  26.9357479  38.5767050  12.9035974  37.8251688  28.1036595
  13.5414384  37.7058435  27.3999935  12.7856816  38.7732532  28.1624547
   9.7125680  37.7779116  28.0398120   9.3744191  37.6620181  27.1518655
  10.5815448  37.3770281  28.0199126   5.5712496  39.6314592  24.0295011
   5.0077361  39.5404529  23.2611298   5.4564891  38.8114497  24.5097503
  10.1945463  38.9313968  33.9984325  10.1834104  38.5366766  33.1264829
  10.3566102  38.1980040  34.5918097   3.1176927  41.1265784  26.8679231
   3.9098219  40.7856609  26.4525530   3.3573578  41.2360759  27.7881384
  11.1512054  43.2985560  19.3409476  10.5000034  43.8839640  18.9543489
  11.9456417  43.8291755  19.4004513   5.0767681  40.3874697  19.7396610
   5.8498557  39.8403684  19.6009486   5.4293080  41.2518947  19.9511071
   6.9152724  41.7151079  32.9463509   6.6242590  42.6196710  32.8310176
   7.5509708  41.7567607  33.6607579   7.8408931  39.0927928  29.5364869
   8.4372503  38.8683950  28.8221832   7.8983902  38.3512673  30.1390317
  12.4577242  35.5503142  25.1789803  13.2440331  35.1322565  24.8280220
  12.7215946  36.4549234  25.3471451  12.6287319  40.9875992  19.8778460
  11.9933152  41.0610619  20.5899365  12.2984726  41.5769591  19.1997539
  17.8585669  35.4878375  26.0822782  18.5910841  34.9177592  26.3160611
  17.1025025  35.0999975  26.5229287   7.1330248  38.4495469  19.5739435
   7.0166506  37.7740373  20.2420519   7.2432508  37.9627843  18.7571588
   9.4761789  37.9105616  23.2786124   9.1119996  37.3836237  23.9899046
  10.3328905  37.5204085  23.1052609  15.3811090  29.1999949  30.5417390
  15.0494414  30.0695360  30.3178605  14.7856703  28.8836233  31.2211421
  11.8742609  41.4012495  29.9413303  11.5743332  42.3037534  29.8329110
  11.5293669  41.1344678  30.7934456   5.3255091  37.8526292  25.9750007
   4.4005587  37.7202506  26.1827699   5.5739504  38.6320511  26.4719950
  15.2739753  33.9195035  27.6210740  14.3656630  33.8510444  27.3269501
  15.2227349  34.3966980  28.4492566   9.0956497  35.3953174  19.2594139
   8.9756122  35.8410224  20.0979620   8.4009085  35.7438491  18.7007678
   2.6863902  37.4959565  26.8093796   2.8156283  37.7494044  27.7233208
   2.0061353  38.0887273  26.4898452   6.8563389  48.1656815  22.9084271
   6.7787419  49.1164640  22.9872751   6.2525032  47.8202688  23.5659197
   9.3480619  35.3384681  35.5645638   8.5713953  35.8978601  35.5548502
   9.9871182  35.8241464  36.0860508  17.1401399  32.1211474  29.3988614
  16.4975779  32.4144007  28.7528409  16.6356328  32.0064394  30.2041811
  14.7941563  35.8674647  20.0874473  15.7059419  36.1002034  19.9122171
  14.2851210  36.4511691  19.5249552   7.6026991  38.1470134  35.1263605
   8.3441675  38.6855178  34.8498428   6.8963976  38.7736423  35.2835156
  13.0782331  40.2899275  33.7235766  13.4865687  39.8481685  32.9790398
  12.3559592  39.7151902  33.9769959   9.4313401  35.2271881  31.0969323
  10.2774596  35.6511295  31.2403972   9.3712038  34.5705506  31.7907886
  13.4011145  40.8500465  27.4788055  12.7720008  41.0146179  26.7764123
  13.0136807  41.2642075  28.2499019  17.2800377  41.7854903  24.8332419
  16.5951415  42.1653804  24.2829452  17.3644226  42.3950230  25.5664366
  12.5812846  32.8876250  32.7550497  12.3373778  33.6418310  32.2184772
  12.8572776  33.2661597  33.5897744  14.5351309  39.4314862  31.4327762
  14.7468204  40.0746622  30.7562143  14.4881057  38.5977179  30.9649692
  12.1377538  32.0432683  28.3364334  11.2762017  32.3413936  28.6281072
  12.1639972  32.2603082  27.4045367   8.9539107  40.5874873  24.7438140
   9.4177453  40.8662576  23.9542763   8.6895905  39.6858318  24.5611231
   5.8463188  40.1346355  27.6817903   6.4164545  40.5633623  27.0435388
   6.4371300  39.8528940  28.3802089   7.8907993  36.7098026  21.5527705
   8.5932036  37.1619069  22.0201632   7.5588622  36.0681845  22.1807598
   6.3388355  35.3009782  35.9278915   5.7087015  35.9826063  36.1614311
   6.2324443  35.1892864  34.9832053   1.6333327  34.9681578  26.8544839
   0.8432381  35.2239107  26.3784949   2.1244574  35.7829916  26.9596879
  15.6497137  42.3086818  29.6050120  16.4714580  41.9067005  29.3232801
  15.6459540  42.2055052  30.5566235   3.5848072  35.3326158  23.8128315
   2.7879236  35.4444852  24.3311811   3.3573665  35.6712810  22.9469206
   9.4153740  41.8570861  31.7610830   9.4798173  42.3191268  32.5969002
   8.7064664  41.2268226  31.8893140  23.7403130  38.6525566  25.9535091
  22.9866838  38.0832964  25.7979095  23.8750671  38.6188230  26.9005726
   9.1301758  43.5238968  21.6289810   8.9947433  44.3690504  22.0574658
   9.6711570  43.7258246  20.8655744   5.6169097  29.6030548  38.2904166
   5.2236043  29.0496747  38.9651810   6.4335238  29.9141127  38.6810683
   2.5831155  41.0414406  22.2017735   3.0955676  41.8357657  22.3523300
   3.2353868  40.3440697  22.1351337   4.3926040  44.1580163  24.2840489
   4.5692668  45.0798127  24.0961473   5.1882873  43.8438582  24.7134868
   8.5337058  31.0188427  35.8824422   9.2746772  31.6195580  35.8028885
   8.7654981  30.2766065  35.3242465   3.6778396  36.2044795  34.1602652
   3.5631912  35.3030052  34.4609751   2.8222914  36.4508491  33.8087468
  10.7570234  44.1462535  35.7590152  10.3134088  43.3598913  35.4411057
  11.4187448  44.3341685  35.0934043   5.5157355  45.6758336  30.2850831
   6.0664780  45.5475400  29.5127825   4.6768831  45.9753225  29.9345724
  12.8551472  44.4265335  33.7871554  12.8369948  45.2474216  33.2951823
  13.7771392  44.3019410  34.0121695   9.3124526  41.9409464  34.6295062
   9.8452863  41.1797752  34.3994370   8.7838607  41.6483116  35.3719217
  12.4794221  27.0469530  30.1588704  12.1358491  27.9371172  30.0827814
  12.8473184  26.8571188  29.2958289   0.5480072  39.3703061  22.9777306
   1.3855294  39.7800069  22.7611014   0.7258340  38.4302503  22.9477500
  12.4444504  37.0378141  18.6661139  11.9291127  37.8082746  18.9049526
  12.1721812  36.3643277  19.2894200  10.0291615  31.8827842  23.7246377
   9.1733211  31.4934692  23.5452016  10.4418567  31.9619803  22.8646163
  11.5590762  29.4174185  28.1237937  11.0555557  29.3804320  27.3105742
  11.8521369  30.3266928  28.1834594   7.8033648  29.5012915  27.1304119
   8.6686644  29.3055724  26.7710008   7.8711157  29.2723267  28.0573476
  17.4178778  39.7910496  20.6014312  16.6408221  39.4521655  20.1569475
  18.0970259  39.7963119  19.9269277  12.2330807  34.9105233  20.4920920
  11.9280943  35.2251383  21.3431063  13.1861249  34.9886653  20.5348253
  10.6777239  41.0695457  22.1413874  10.1498601  40.3348216  21.8287112
  10.1764742  41.8470133  21.8953842  15.6570085  39.2644477  27.2580920
  14.9993760  39.9543739  27.3461049  16.4610484  39.6540909  27.6014907
   5.4095967  31.7315123  24.5020486   5.9839719  31.5090304  23.7693679
   5.9966949  31.8003817  25.2549087  14.4675544  37.6188850  25.3084862
  14.9807426  38.2518842  25.8106572  15.1176768  37.0190045  24.9428222
   7.7118634  28.6056372  23.2295555   7.0583047  28.2905389  22.6052170
   7.6699109  27.9832112  23.9555378  11.7297918  47.5973174  18.0645533
  11.0559617  47.9004871  18.6730491  12.1163740  48.4002254  17.7150990
  10.9456375  35.0938305  27.5543203  10.0278936  35.3153252  27.3964891
  11.3616518  35.1684616  26.6954910  11.7291423  36.4929721  22.6845883
  12.4763241  37.0051118  22.3753005  11.9983012  36.1713774  23.5450277
  10.0018073  38.9888262  19.6672837   9.0929292  38.7047295  19.7645307
  10.0313156  39.4087340  18.8076144  15.2337340  42.5994851  23.4364005
  14.7799667  41.7585761  23.4929195  14.6031307  43.2356250  23.7738785
  14.1770260  33.5286837  24.6664672  13.4393016  33.0164224  24.9974915
  14.4297033  33.0887219  23.8547949  13.6770279  44.4371348  24.3713823
  13.9693254  44.9976405  23.6526189  14.1868900  44.7299909  25.1266982
  14.2781887  26.3063089  25.2606442  14.5840764  25.4460453  24.9732357
  15.0034492  26.8980710  25.0605435   8.5502967  36.6016882  25.7682633
   8.6051577  35.6490719  25.6925109   7.7394169  36.7576322  26.2523931
   9.6994160  40.5297005  17.0060916   9.2613590  39.8132864  16.5466553
  10.4404601  40.7573120  16.4446007   6.4895327  35.2193942  23.5273011
   5.6763192  35.5188113  23.9338204   6.9854321  34.8249631  24.2447494
   8.6403905  45.2151699  25.4607276   8.5980083  45.4412545  24.5315808
   9.5566603  44.9815074  25.6093077  12.0869538  35.6835767  32.3587905
  12.4418926  35.9107240  33.2182371  12.7341670  36.0154143  31.7365161
  17.8167275  38.8054203  23.0637234  17.6785174  38.9955799  22.1358424
  17.4603494  39.5673585  23.5205286   5.9809401  32.7912298  29.1434246
   6.6208781  32.6501057  28.4457210   5.1486932  32.5046811  28.7672848
  17.8436655  40.8730730  28.0748506  18.2773162  40.7806019  28.9231560
  18.5568236  40.8488230  27.4368522   6.7569705  42.0914728  25.2569239
   7.5510304  41.5965048  25.0551814   6.0461398  41.5632591  24.8936944
  11.5764550  44.4732824  29.6081606  11.6301572  45.0423760  30.3759322
  10.7079331  44.6434709  29.2435644   3.0652469  36.2357810  21.3328992
   2.1350057  36.1742265  21.5498954   3.1609941  35.7133763  20.5365633
   2.9838018  32.7612623  23.9207233   3.2444835  33.6757956  23.8116394
   3.8055190  32.2937065  24.0703846   4.4562943  34.1750380  31.0906058
   5.1285997  33.9667742  30.4418707   3.6292730  33.9772466  30.6511290
  18.7052204  40.9154430  30.6081391  18.8988095  41.8200241  30.8540666
  18.6052823  40.4561849  31.4419976  10.3588515  30.8012321  33.1071719
   9.7116430  31.5002270  33.0136195  11.1289531  31.2348465  33.4747967
  13.7667313  41.0661173  36.1822272  13.6152820  40.8371725  35.2652356
  13.7571993  42.0231774  36.1953617  10.5352650  38.6393086  31.1668538
  11.4644710  38.7904245  30.9937506  10.1143680  38.7277106  30.3117185
   9.3340981  42.6643750  28.9367076   9.1952067  42.2962535  29.8093014
   8.5455578  43.1791390  28.7651034   9.9289133  47.7652847  20.2792612
  10.1040889  47.2940890  21.0938235   9.2421921  48.3918613  20.5073873
  10.8846196  42.0425353  26.3255914  10.5496029  42.0026123  27.2213564
  10.3850142  41.3770069  25.8526324   4.8590440  37.4492983  31.8508495
   4.7210238  36.7173222  32.4520034   5.7695364  37.3601883  31.5692683
  13.8205388  39.3881387  16.5992973  13.2034559  38.6628215  16.5026026
  13.3521877  40.1490747  16.2560048   7.4872741  37.1612942  31.3392175
   8.1972360  36.5206134  31.2978793   7.4442049  37.4125837  32.2618355
  15.4759520  44.0980295  34.2598754  15.4172066  43.4139516  33.5929337
  15.8779038  44.8399286  33.8079380   6.2001675  34.1478160  33.1587814
   5.6639032  33.6968898  33.8109410   5.6118384  34.2824069  32.4158278
   4.4950219  50.9142209  27.0532473   4.7346817  51.5460733  27.7311491
   3.6519415  50.5630249  27.3397832  15.4776927  42.0619879  32.4912733
  14.5903706  41.7245801  32.6139132  16.0475478  41.3302911  32.7281499
   1.9340796  33.2834168  30.2440809   1.8498985  32.6759837  29.5091218
   1.1123503  33.7743186  30.2450305   9.0078080  46.7221332  29.4573977
   8.9348252  47.5276303  29.9693281   8.5655474  46.9213298  28.6321998
   8.7967860  45.9593102  22.9676798   8.0135382  46.5014782  23.0615023
   9.4960605  46.4767081  23.3671039  12.1064510  31.7687731  25.6111004
  12.6033210  31.0157694  25.2912074  11.3351492  31.8052048  25.0454213
  19.9594268  37.4728097  27.2529295  19.9484144  38.3552812  26.8823228
  19.0911647  37.1199648  27.0583832  11.4676764  46.6208166  31.6132135
  12.1804736  47.2555631  31.5408037  10.9766793  46.7172032  30.7972137
  13.1894291  40.5259418  23.1849427  12.2550570  40.6460881  23.0154131
  13.3670959  39.6231885  22.9209437   8.6899479  33.9105114  25.3382688
   8.3197266  33.3576155  26.0263594   9.1858571  33.3063248  24.7857688
  16.5766842  36.3676738  23.7199461  17.0427294  37.2004729  23.6459764
  17.0274343  35.9021719  24.4244720   6.5188677  44.3702609  32.4337706
   7.2198137  45.0039092  32.5867100   6.0483792  44.7117341  31.6733345
  14.6443073  42.7120559  20.7185613  14.9202917  42.5977154  21.6279487
  13.7747572  42.3138044  20.6797786  14.5483505  28.7357325  27.7590362
  13.6346585  28.9661552  27.9272569  14.9776606  28.8195769  28.6104395
  14.3189963  36.9247217  30.2590256  13.6661414  37.1723124  29.6042709
  14.6970343  36.1111355  29.9252734  11.2797137  46.9606910  24.3618427
  11.4619532  46.1428566  24.8246179  12.1030123  47.1774602  23.9243317
  11.6139303  45.8875095  21.6233475  12.1427069  45.3767550  21.0103637
  11.8767522  45.5717625  22.4879008  10.3677536  37.6667028  36.7456294
   9.6918173  37.5661157  37.4158669  11.1905170  37.5106242  37.2092291
   2.1156396  43.9038964  29.3668809   2.7009832  43.1582652  29.4996713
   1.9181234  44.2142921  30.2505473   4.9695051  46.9390212  24.3831251
   4.3005426  47.4236339  23.8995291   4.8307920  47.1859432  25.2974630
   9.1100319  48.9733955  30.9813910   9.6618627  49.1365577  31.7462995
   9.4506513  49.5638393  30.3093934   4.0864813  31.3209105  31.5835794
   4.1506139  32.1823936  31.1713192   4.0231933  30.7083107  30.8508153
   3.5617085  33.3932238  35.2308829   4.1889124  33.0109315  35.8446353
   2.7045004  33.1746440  35.5964521  13.9611194  43.7995213  36.8362564
  14.5051098  44.4125171  36.3417519  13.3798039  44.3574791  37.3529577
  12.2468707  46.9215931  27.9677592  12.1219846  46.1205671  27.4588537
  12.9047798  47.4162124  27.4791562   3.8676875  33.2764663  27.1454732
   3.1463461  33.8900631  27.0062205   4.6570131  33.8122428  27.0671378
  14.3103615  44.7224951  29.5957142  13.3633951  44.6030302  29.5235469
  14.6586388  43.8347449  29.6783403   6.6703188  30.6119090  33.4195384
   7.1937590  30.8581386  34.1821693   6.4515522  31.4439125  32.9998521
  11.3150048  44.5177667  25.7961494  11.1675011  43.5894374  25.9769064
  12.1403542  44.5397758  25.3118569   5.1812293  33.1695734  21.6541986
   5.5208365  33.6981655  20.9320595   5.6284413  33.5076140  22.4300553
  14.9184170  45.3406226  26.8826367  15.8430718  45.1349087  26.7450818
  14.7499474  45.0922627  27.7915708   7.8755733  31.5532785  31.1045054
   7.5352554  30.7540598  31.5065734   7.1694740  31.8534496  30.5321887
   8.5272205  28.6382097  29.5572377   9.3498275  28.1642575  29.4351268
   8.7710269  29.4172581  30.0571064  11.3111563  32.3715505  20.7893611
  11.5275177  33.2540143  20.4882439  10.8305630  31.9801718  20.0599253
   6.0510784  35.3301218  27.3664356   5.9055365  35.6441521  28.2588637
   5.5735988  35.9486118  26.8135254   7.9107167  32.3203766  27.4145245
   7.8968736  31.4244859  27.0777543   8.6279595  32.3274430  28.0483531
   9.7633298  32.7541106  29.4598373   9.5051075  33.6758177  29.4582703
   9.2318338  32.3571541  30.1498837  14.7079486  45.8591893  22.2388458
  14.8816364  45.2938316  21.4862311  15.2008378  46.6592788  22.0567948
   7.3144063  31.2018146  22.6832816   7.4359974  30.2734792  22.8823703
   7.0246105  31.2156832  21.7711131  10.1835253  28.8873057  25.8199535
  10.2056950  28.9512390  24.8651515  10.6003312  28.0477565  26.0140042
  20.5618878  38.6228316  23.8578758  21.0050024  37.8735641  23.4597881
  19.6845388  38.6138453  23.4752490  15.6954659  45.1758658  19.3385357
  16.3905563  45.7965350  19.5572671  16.0377809  44.3254009  19.6137734
   1.3122468  36.9976459  33.1982174   0.5704204  37.1459094  33.7846804
   0.9915212  37.2584724  32.3348923  17.5946082  42.6258363  20.8672687
  18.1197406  42.9645636  20.1422007  17.5068435  41.6905379  20.6835822
   9.2566131  46.5392437  32.9962564   9.5653257  46.2941584  33.8685263
  10.0541613  46.7439075  32.5081434   9.2786743  48.6930346  25.2267940
   8.8391733  48.2006725  25.9200797  10.0294860  48.1503314  24.9860016
   1.7579082  44.8841887  25.2292569   2.5837102  44.5845659  24.8491212
   1.4073134  44.1149510  25.6782357   6.7260615  44.2368356  27.2990242
   6.1040624  43.5739061  26.9992470   7.3965482  44.2629487  26.6163890
   6.7985142  32.7150144  36.8922748   6.8473298  33.5912266  36.5100518
   7.3407657  32.1727537  36.3194391  17.2839988  43.2591267  36.1723885
  16.4935532  43.2415406  35.6328385  17.0473343  43.7979561  36.9272922
  17.4037863  40.1083733  33.4856614  17.4535868  39.9433741  34.4272137
  17.2951786  39.2410992  33.0954495   6.2874122  42.7872279  20.7748703
   6.4362242  43.4707743  20.1215375   7.0940565  42.7677369  21.2898158
  14.6941625  36.0914661  34.8015920  15.5951488  35.9521126  34.5099918
  14.7689600  36.2569116  35.7414098   9.0284431  33.4681516  33.6469107
   8.1587740  33.7615082  33.3751695   9.2643911  34.0521961  34.3676370
  18.9056060  42.5280675  33.7298635  18.6140868  42.8910655  34.5662096
  18.2928191  41.8147683  33.5511967  20.1051742  40.0933554  26.2501206
  20.9398634  40.5323359  26.4138766  20.2410871  39.6172208  25.4309451
  17.1543248  37.6513289  32.1978693  17.6297370  37.8440936  31.3897545
  16.2308814  37.7072475  31.9522077   4.0426755  38.8137457  21.7809772
   3.7972797  37.9099787  21.9789982   4.2122669  38.8154607  20.8389250
  11.7323465  29.6861133  31.1634527  12.2505409  30.4222160  30.8381016
  11.3778597  29.9925126  31.9981286  11.9836059  26.1061415  26.6835424
  12.2637813  25.4384604  27.3095850  12.7686666  26.2990511  26.1710088
   9.7869527  45.2820409  18.2460450   9.2143494  45.9010596  17.7930922
  10.3602321  45.8319771  18.7800372  15.8544917  34.5279049  30.4306999
  16.8062340  34.6277147  30.4519223  15.6848368  33.7357318  30.9405083
  13.8759297  31.6134633  30.6166400  13.2809229  31.8939645  29.9212888
  13.5908993  32.1028534  31.3883141  13.0066787  45.5657559  19.3769032
  13.9397460  45.5003121  19.5801908  12.9190000  46.4013826  18.9183565
  15.6354804  44.8823430  16.3372980  15.5568435  44.5483293  17.2308738
  16.4564471  45.3745198  16.3364452  18.3332995  37.7485169  29.5449299
  18.3009315  36.8101170  29.7308982  18.9433619  37.8269206  28.8115123
  18.4827483  34.5396213  29.5907582  17.9666532  33.7554669  29.4037511
  19.3667432  34.2114929  29.7554101  16.1438210  28.2837228  25.5503394
  15.9463031  27.9752316  26.4346726  16.7537916  29.0098867  25.6801324
  24.1509545  38.8101176  28.6855335  24.8812933  38.5486464  29.2463039
  23.5416490  38.0729898  28.7257403  22.2324842  36.9509039  29.2829787
  21.5058005  36.8165003  28.6746278  21.8172129  37.2585867  30.0886505
  10.0555018  40.6698968  37.0477160  10.9758028  40.8477567  37.2417206
  10.0204601  39.7255014  36.8956859   3.0517091  38.5800003  29.6899941
   3.2703101  39.5117111  29.7087975   3.4642865  38.2207977  30.4754745
   9.9721309  29.0868088  21.6775629   9.1622037  28.7415173  22.0530875
  10.6605726  28.7775632  22.2663241  11.9011857  28.1646135  23.2999926
  12.4542896  28.5841588  23.9589949  12.1381943  27.2381883  23.3422882
   7.9244956  34.1533209  39.0802690   7.8241683  35.1027566  39.0114781
   7.7066498  33.8251448  38.2078760  15.2790664  30.2746660  22.8078590
  14.6989333  30.9331464  22.4256642  15.0126597  29.4524005  22.3966008
  13.7294230  29.6751718  25.0099910  14.2294009  29.7868252  24.2014229
  14.3729838  29.3712771  25.6500719   7.7876226  37.5830347  37.8967751
   7.3043308  38.3830708  38.1031640   7.8737165  37.5938292  36.9435195
   1.0562186  39.4158727  25.8189571   1.0332874  39.5146414  24.8671454
   1.3662822  40.2623878  26.1406737   3.7149564  41.4734882  29.9336185
   4.6692817  41.4418825  29.8666117   3.5162087  41.0125506  30.7486411
   4.3048946  40.0435998  32.5006983   5.1241835  40.5380077  32.5241820
   4.5785754  39.1267966  32.4724550  14.0615542  32.4346751  21.8634938
  13.1741397  32.7196401  21.6455133  14.4769531  32.2740514  21.0162215
  17.4130078  32.4593272  25.5789278  18.1890468  32.9489724  25.8513894
  16.6878212  32.8851326  26.0361147  19.8502637  33.1720891  26.6363218
  20.4447128  32.9316627  25.9256526  19.9229221  32.4528021  27.2636754
   2.0699793  47.0154502  26.9506383   1.9354260  46.2554903  26.3844381
   1.6531855  47.7395402  26.4835172  13.2058756  42.1991425  15.9582958
  13.9094606  42.4041428  16.5740614  12.4821404  42.7668187  16.2232042
  14.0356566  37.9501286  22.0785228  13.9791767  38.4069838  21.2392861
  14.5884908  37.1891971  21.9008071  17.8461372  33.7391018  22.9035348
  17.5898306  33.3387654  23.7343556  17.2214240  34.4534812  22.7785487
  22.1573710  36.4787092  25.4106639  21.5973268  36.5480281  26.1838201
  21.5517213  36.3028076  24.6906136   5.2268918  47.9123819  27.1624826
   5.1101303  48.8569251  27.0603516   4.4061365  47.6097380  27.5510625
  15.1145453  42.6373954  18.0081418  15.9491057  42.2055153  17.8258893
  14.9529796  42.4655968  18.9358313  14.7691345  39.1406068  19.3737758
  14.7140149  38.9750339  18.4326202  14.1437400  39.8482101  19.5299947
  12.0837252  41.4454980  38.6991320  12.9528412  41.6195632  38.3377955
  11.6044004  42.2649396  38.5767050   6.2523433  48.5652081  30.3780754
   7.1550679  48.5975691  30.6947249   6.0260803  47.6352532  30.3927090
   8.0077035  47.3183067  27.0390833   7.0572666  47.3184929  26.9255205
   8.3109521  46.5715802  26.5226867  11.8939590  25.2356953  23.2069013
  11.1271986  24.6815440  23.3525695  12.3050295  25.3078822  24.0683164
   3.8981351  31.5241749  37.2974194   4.7612813  31.1678554  37.5077519
   3.3246762  31.1855644  37.9849598  23.7429728  53.1543606  28.1036595
  24.3808138  53.0350353  27.3999935  23.6250571  54.1024449  28.1624547
  20.5519434  53.1071034  28.0398120  20.2137946  52.9912098  27.1518655
  21.4209203  52.7062199  28.0199126  16.4106250  54.9606510  24.0295011
  15.8471115  54.8696447  23.2611298  16.2958645  54.1406414  24.5097503
  21.0339217  54.2605885  33.9984325  21.0227858  53.8658684  33.1264829
  21.1959857  53.5271958  34.5918097  13.9570682  56.4557702  26.8679231
  14.7491974  56.1148526  26.4525530  14.1967332  56.5652677  27.7881384
  21.9905809  58.6277478  19.3409476  21.3393788  59.2131558  18.9543489
  22.7850172  59.1583673  19.4004513  15.9161436  55.7166615  19.7396610
  16.6892312  55.1695602  19.6009486  16.2686835  56.5810864  19.9511071
  17.7546478  57.0442997  32.9463509  17.4636344  57.9488628  32.8310176
  18.3903463  57.0859525  33.6607579  18.6802685  54.4219846  29.5364869
  19.2766258  54.1975868  28.8221832  18.7377657  53.6804591  30.1390317
  18.2527714  51.8759281  17.3715060  18.5053234  51.3540802  16.6098523
  17.3152273  51.7125426  17.4741743  23.2970997  50.8795059  25.1789803
  24.0834086  50.4614483  24.8280220  23.5609701  51.7841152  25.3471451
  23.4681074  56.3167910  19.8778460  22.8326907  56.3902536  20.5899365
  23.1378480  56.9061509  19.1997539  28.6979424  50.8170293  26.0822782
  29.4304596  50.2469509  26.3160611  27.9418779  50.4291893  26.5229287
  17.9724002  53.7787387  19.5739435  17.8560261  53.1032290  20.2420519
  18.0826262  53.2919761  18.7571588  20.3155543  53.2397534  23.2786124
  19.9513751  52.7128155  23.9899046  21.1722659  52.8496003  23.1052609
  26.2204844  44.5291867  30.5417390  25.8888169  45.3987278  30.3178605
  25.6250457  44.2128151  31.2211421  19.9561030  48.2687434  18.2747473
  20.1235433  49.1367670  18.6417944  19.7658199  48.4314715  17.3508762
  22.7136364  56.7304413  29.9413303  22.4137087  57.6329451  29.8329110
  22.3687423  56.4636596  30.7934456  16.1648845  53.1818210  25.9750007
  15.2399341  53.0494424  26.1827699  16.4133258  53.9612429  26.4719950
  26.1133507  49.2486953  27.6210740  25.2050385  49.1802361  27.3269501
  26.0621103  49.7258898  28.4492566  19.9350251  50.7245091  19.2594139
  19.8149876  51.1702142  20.0979620  19.2402840  51.0730409  18.7007678
  13.5257656  52.8251483  26.8093796  13.6550037  53.0785962  27.7233208
  12.8455107  53.4179191  26.4898452  17.6957143  63.4948733  22.9084271
  17.6181173  64.4456558  22.9872751  17.0918787  63.1494606  23.5659197
  20.1874373  50.6676598  35.5645638  19.4107707  51.2270519  35.5548502
  20.8264936  51.1533381  36.0860508  27.9795154  47.4503391  29.3988614
  27.3369534  47.7435924  28.7528409  27.4750082  47.3356312  30.2041811
  25.6335317  51.1966564  20.0874473  26.5453173  51.4293951  19.9122171
  25.1244964  51.7803609  19.5249552  18.4420745  53.4762052  35.1263605
  19.1835430  54.0147096  34.8498428  17.7357731  54.1028341  35.2835156
  23.9176085  55.6191192  33.7235766  24.3259441  55.1773603  32.9790398
  23.1953347  55.0443820  33.9769959  20.2707155  50.5563799  31.0969323
  21.1168350  50.9803213  31.2403972  20.2105793  49.8997423  31.7907886
  24.2404900  56.1792383  27.4788055  23.6113762  56.3438097  26.7764123
  23.8530562  56.5933992  28.2499019  28.1194132  57.1146821  24.8332419
  27.4345170  57.4945722  24.2829452  28.2037981  57.7242147  25.5664366
  23.4206600  48.2168167  32.7550497  23.1767532  48.9710228  32.2184772
  23.6966531  48.5953515  33.5897744  25.3745063  54.7606780  31.4327762
  25.5861958  55.4038540  30.7562143  25.3274811  53.9269096  30.9649692
  22.9771292  47.3724600  28.3364334  22.1155771  47.6705854  28.6281072
  23.0033727  47.5894999  27.4045367  19.7932862  55.9166791  24.7438140
  20.2571207  56.1954494  23.9542763  19.5289660  55.0150236  24.5611231
  16.6856943  55.4638273  27.6817903  17.2558300  55.8925541  27.0435388
  17.2765054  55.1820857  28.3802089  18.7301748  52.0389943  21.5527705
  19.4325791  52.4910987  22.0201632  18.3982376  51.3973762  22.1807598
  17.1782109  50.6301700  35.9278915  16.5480770  51.3117981  36.1614311
  17.0718197  50.5184782  34.9832053  12.4727082  50.2973496  26.8544839
  11.6826136  50.5531025  26.3784949  12.9638329  51.1121834  26.9596879
  26.4890891  57.6378735  29.6050120  27.3108335  57.2358922  29.3232801
  26.4853294  57.5346969  30.5566235  14.4241827  50.6618075  23.8128315
  13.6272990  50.7736770  24.3311811  14.1967419  51.0004727  22.9469206
  20.2547495  57.1862778  31.7610830  20.3191927  57.6483186  32.5969002
  19.5458418  56.5560143  31.8893140  10.7564785  50.5503986  29.2859830
  11.0072823  51.4350996  29.5517405  11.2924333  50.3708588  28.5134921
  34.5796884  53.9817484  25.9535091  33.8260593  53.4124882  25.7979095
  34.7144425  53.9480148  26.9005726  19.9695512  58.8530886  21.6289810
  19.8341187  59.6982422  22.0574658  20.5105325  59.0550164  20.8655744
  16.4562852  44.9322466  38.2904166  16.0629797  44.3788664  38.9651810
  17.2728992  45.2433044  38.6810683  13.4224910  56.3706324  22.2017735
  13.9349430  57.1649574  22.3523300  14.0747622  55.6732614  22.1351337
  15.2319794  59.4872080  24.2840489  15.4086423  60.4090045  24.0961473
  16.0276628  59.1730499  24.7134868  19.3730813  46.3480345  35.8824422
  20.1140526  46.9487498  35.8028885  19.6048736  45.6057983  35.3242465
  14.5172151  51.5336712  34.1602652  14.4025666  50.6321969  34.4609751
  13.6616669  51.7800409  33.8087468  21.5963989  59.4754452  35.7590152
  21.1527843  58.6890831  35.4411057  22.2581202  59.6633603  35.0934043
  16.3551110  61.0050254  30.2850831  16.9058535  60.8767317  29.5127825
  15.5162586  61.3045143  29.9345724  23.6945227  59.7557252  33.7871554
  23.6763702  60.5766133  33.2951823  24.6165147  59.6311328  34.0121695
  20.1518281  57.2701382  34.6295062  20.6846618  56.5089670  34.3994370
  19.6232362  56.9775034  35.3719217  23.3187976  42.3761448  30.1588704
  22.9752245  43.2663090  30.0827814  23.6866938  42.1863105  29.2958289
  11.3873826  54.6994978  22.9777306  12.2249048  55.1091987  22.7611014
  11.5652094  53.7594420  22.9477500  23.2838259  52.3670059  18.6661139
  22.7684882  53.1374664  18.9049526  23.0115567  51.6935195  19.2894200
  20.8685370  47.2119760  23.7246377  20.0126966  46.8226610  23.5452016
  21.2812321  47.2911721  22.8646163  22.3984516  44.7466103  28.1237937
  21.8949312  44.7096238  27.3105742  22.6915123  45.6558846  28.1834594
  18.6427402  44.8304833  27.1304119  19.5080399  44.6347641  26.7710008
  18.7104911  44.6015185  28.0573476  28.2572533  55.1202414  20.6014312
  27.4801975  54.7813573  20.1569475  28.9364014  55.1255037  19.9269277
  23.0724562  50.2397151  20.4920920  22.7674697  50.5543300  21.3431063
  24.0255004  50.3178571  20.5348253  21.5170994  56.3987374  22.1413874
  20.9892355  55.6640134  21.8287112  21.0158496  57.1762051  21.8953842
  26.4963840  54.5936395  27.2580920  25.8387514  55.2835656  27.3461049
  27.3004239  54.9832827  27.6014907  16.2489721  47.0607041  24.5020486
  16.8233473  46.8382222  23.7693679  16.8360704  47.1295735  25.2549087
  25.3069298  52.9480768  25.3084862  25.8201180  53.5810759  25.8106572
  25.9570522  52.3481963  24.9428222  16.5759308  49.0911502  18.5216371
  15.7396621  49.4286188  18.8425646  16.4364078  48.9560481  17.5843508
  18.5512389  43.9348290  23.2295555  17.8976801  43.6197307  22.6052170
  18.5092863  43.3124030  23.9555378  19.6623594  54.2167585  15.1448847
  18.7550655  53.9856838  15.3439996  20.1594626  53.4205204  15.3322829
  22.5691673  62.9265092  18.0645533  21.8953371  63.2296789  18.6730491
  22.9557495  63.7294172  17.7150990  21.7850129  50.4230223  27.5543203
  20.8672691  50.6445170  27.3964891  22.2010273  50.4976534  26.6954910
  22.5685177  51.8221639  22.6845883  23.3156996  52.3343036  22.3753005
  22.8376767  51.5005692  23.5450277  20.8411827  54.3180180  19.6672837
  19.9323046  54.0339212  19.7645307  20.8706911  54.7379258  18.8076144
  26.0731095  57.9286769  23.4364005  25.6193422  57.0877679  23.4929195
  25.4425061  58.5648167  23.7738785  25.0164014  48.8578755  24.6664672
  24.2786771  48.3456141  24.9974915  25.2690788  48.4179137  23.8547949
  24.5164034  59.7663266  24.3713823  24.8087008  60.3268323  23.6526189
  25.0262654  60.0591827  25.1266982  25.1175641  41.6355007  25.2606442
  25.4234518  40.7752370  24.9732357  25.8428246  42.2272627  25.0605435
  11.4099998  52.0385694  23.6488039  11.2124397  51.4455054  22.9239106
  10.8546662  51.7337904  24.3663978  19.3896721  51.9308800  25.7682633
  19.4445331  50.9782637  25.6925109  18.5787923  52.0868239  26.2523931
  20.5387915  55.8588923  17.0060916  20.1007345  55.1424782  16.5466553
  21.2798356  56.0865038  16.4446007  17.3289081  50.5485860  23.5273011
  16.5156947  50.8480030  23.9338204  17.8248075  50.1541549  24.2447494
  19.4797659  60.5443617  25.4607276  19.4373838  60.7704463  24.5315808
  20.3960358  60.3106991  25.6093077  22.9263293  51.0127684  32.3587905
  23.2812681  51.2399157  33.2182371  23.5735424  51.3446061  31.7365161
  28.6561030  54.1346120  23.0637234  28.5178928  54.3247716  22.1358424
  28.2997249  54.8965503  23.5205286  16.8203156  48.1204215  29.1434246
  17.4602535  47.9792974  28.4457210  15.9880686  47.8338729  28.7672848
  28.6830409  56.2022647  28.0748506  29.1166916  56.1097936  28.9231560
  29.3961990  56.1780148  27.4368522  17.5963460  57.4206646  25.2569239
  18.3904058  56.9256966  25.0551814  16.8855152  56.8924509  24.8936944
  22.4158304  59.8024741  29.6081606  22.4695327  60.3715678  30.3759322
  21.5473086  59.9726626  29.2435644  13.9046223  51.5649728  21.3328992
  12.9743811  51.5034183  21.5498954  14.0003695  51.0425680  20.5365633
  13.8231772  48.0904540  23.9207233  14.0838590  49.0049874  23.8116394
  14.6448945  47.6228983  24.0703846  15.2956698  49.5042298  31.0906058
  15.9679751  49.2959660  30.4418707  14.4686484  49.3064384  30.6511290
  29.5445959  56.2446348  30.6081391  29.7381849  57.1492158  30.8540666
  29.4446577  55.7853767  31.4419976  21.1982270  46.1304238  33.1071719
  20.5510185  46.8294188  33.0136195  21.9683285  46.5640382  33.4747967
  24.6061068  56.3953091  36.1822272  24.4546574  56.1663642  35.2652356
  24.5965747  57.3523692  36.1953617  21.3746404  53.9685003  31.1668538
  22.3038464  54.1196163  30.9937506  20.9537434  54.0569024  30.3117185
  20.1734736  57.9935668  28.9367076  20.0345821  57.6254452  29.8093014
  19.3849332  58.5083307  28.7651034  20.7682888  63.0944764  20.2792612
  20.9434643  62.6232807  21.0938235  20.0815676  63.7210530  20.5073873
  21.7239951  57.3717270  26.3255914  21.3889784  57.3318040  27.2213564
  21.2243897  56.7061986  25.8526324  15.6984195  52.7784901  31.8508495
  15.5603993  52.0465139  32.4520034  16.6089118  52.6893801  31.5692683
  24.6599143  54.7173305  16.5992973  24.0428313  53.9920133  16.5026026
  24.1915631  55.4782665  16.2560048  18.3266496  52.4904860  31.3392175
  19.0366114  51.8498052  31.2978793  18.2835804  52.7417755  32.2618355
  26.3153274  59.4272213  34.2598754  26.2565820  58.7431433  33.5929337
  26.7172793  60.1691203  33.8079380  17.0395430  49.4770078  33.1587814
  16.5032787  49.0260816  33.8109410  16.4512138  49.6115987  32.4158278
  15.3343973  66.2434127  27.0532473  15.5740571  66.8752651  27.7311491
  14.4913170  65.8922167  27.3397832  16.4497689  48.9358729  15.7214278
  15.5727155  48.8147530  15.3576524  16.9255442  48.1444807  15.4693166
  26.3170682  57.3911797  32.4912733  25.4297460  57.0537719  32.6139132
  26.8869233  56.6594828  32.7281499   7.9699829  53.7235889  25.8155785
   8.6570868  53.4097619  25.2276800   7.8147957  54.6277253  25.5423036
  12.7734551  48.6126085  30.2440809  12.6892740  48.0051755  29.5091218
  11.9517257  49.1035104  30.2450305  19.8471835  62.0513249  29.4573977
  19.7742006  62.8568221  29.9693281  19.4049228  62.2505215  28.6321998
  19.6361615  61.2885019  22.9676798  18.8529136  61.8306700  23.0615023
  20.3354360  61.8058999  23.3671039  22.9458265  47.0979649  25.6111004
  23.4426964  46.3449611  25.2912074  22.1745246  47.1343966  25.0454213
  30.7988022  52.8020014  27.2529295  30.7877898  53.6844730  26.8823228
  29.9305401  52.4491565  27.0583832  22.3070518  61.9500083  31.6132135
  23.0198491  62.5847548  31.5408037  21.8160547  62.0463949  30.7972137
  24.0288045  55.8551336  23.1849427  23.0944324  55.9752799  23.0154131
  24.2064714  54.9523803  22.9209437  19.5293233  49.2397032  25.3382688
  19.1591021  48.6868072  26.0263594  20.0252326  48.6355165  24.7857688
  27.4160597  51.6968655  23.7199461  27.8821049  52.5296647  23.6459764
  27.8668097  51.2313637  24.4244720  17.3582432  59.6994527  32.4337706
  18.0591891  60.3331010  32.5867100  16.8877547  60.0409258  31.6733345
  25.4836828  58.0412477  20.7185613  25.7596672  57.9269071  21.6279487
  24.6141327  57.6429962  20.6797786  25.3877259  44.0649242  27.7590362
  24.4740339  44.2953469  27.9272569  25.8170361  44.1487687  28.6104395
  25.1583718  52.2539134  30.2590256  24.5055168  52.5015042  29.6042709
  25.5364098  51.4403273  29.9252734  22.1190892  62.2898828  24.3618427
  22.3013286  61.4720484  24.8246179  22.9423878  62.5066520  23.9243317
  22.4533057  61.2167013  21.6233475  22.9820824  60.7059467  21.0103637
  22.7161277  60.9009543  22.4879008  21.2071291  52.9958945  36.7456294
  20.5311928  52.8953075  37.4158669  22.0298925  52.8398159  37.2092291
  12.9550150  59.2330882  29.3668809  13.5403587  58.4874570  29.4996713
  12.7574988  59.5434839  30.2505473  15.8088805  62.2682129  24.3831251
  15.1399181  62.7528257  23.8995291  15.6701675  62.5151350  25.2974630
   7.5467805  51.8036482  28.0873252   7.5851904  51.2700073  28.8810370
   7.0408098  51.2771688  27.4684229  19.9494074  64.3025873  30.9813910
  20.5012382  64.4657494  31.7462995  20.2900267  64.8930311  30.3093934
  14.9258567  46.6501023  31.5835794  14.9899894  47.5115854  31.1713192
  14.8625687  46.0375024  30.8508153  14.4010840  48.7224155  35.2308829
  15.0282878  48.3401233  35.8446353  13.5438758  48.5038357  35.5964521
  24.8004948  59.1287130  36.8362564  25.3444852  59.7417089  36.3417519
  24.2191793  59.6866709  37.3529577  11.1776382  50.5300584  21.1627183
  11.4729823  49.6211263  21.1094237  10.2764418  50.5088324  20.8408186
  23.0862461  62.2507848  27.9677592  22.9613601  61.4497588  27.4588537
  23.7441552  62.7454042  27.4791562  14.7070629  48.6056581  27.1454732
  13.9857215  49.2192549  27.0062205  15.4963885  49.1414346  27.0671378
  25.1497369  60.0516869  29.5957142  24.2027705  59.9322220  29.5235469
  25.4980143  59.1639367  29.6783403  17.5096943  45.9411007  33.4195384
  18.0331345  46.1873304  34.1821693  17.2909276  46.7731042  32.9998521
  12.9064224  48.2114682  21.2866508  12.5776930  47.3312061  21.1041614
  13.2603595  48.1562351  22.1742898  22.1543803  59.8469585  25.7961494
  22.0068765  58.9186292  25.9769064  22.9797296  59.8689675  25.3118569
  16.0206047  48.4987652  21.6541986  16.3602120  49.0273573  20.9320595
  16.4678168  48.8368058  22.4300553  25.7577925  60.6698143  26.8826367
  26.6824472  60.4641005  26.7450818  25.5893228  60.4214545  27.7915708
  18.7149488  46.8824703  31.1045054  18.3746308  46.0832516  31.5065734
  18.0088494  47.1826413  30.5321887  19.3665960  43.9674015  29.5572377
  20.1892029  43.4934493  29.4351268  19.6104023  44.7464499  30.0571064
  18.0074194  46.9962273  19.8535279  18.7282557  47.3743526  19.3498996
  17.3839498  47.7151150  19.9570257  22.1505317  47.7007422  20.7893611
  22.3668932  48.5832060  20.4882439  21.6699384  47.3093636  20.0599253
  16.8904538  50.6593136  27.3664356  16.7449119  50.9733439  28.2588637
  16.4129742  51.2778036  26.8135254  18.7500921  47.6495684  27.4145245
  18.7362490  46.7536777  27.0777543  19.4673349  47.6566347  28.0483531
  20.6027052  48.0833024  29.4598373  20.3444830  49.0050094  29.4582703
  20.0712092  47.6863458  30.1498837  25.5473241  61.1883811  22.2388458
  25.7210118  60.6230233  21.4862311  26.0402132  61.9884706  22.0567948
  11.3650201  53.1998480  30.3052017  10.8203669  53.9758288  30.4372291
  12.2429551  53.5469284  30.1471138  18.1537817  46.5310064  22.6832816
  18.2753729  45.6026710  22.8823703  17.8639860  46.5448750  21.7711131
  21.0229008  44.2164974  25.8199535  21.0450705  44.2804307  24.8651515
  21.4397067  43.3769483  26.0140042  31.4012632  53.9520234  23.8578758
  31.8443778  53.2027559  23.4597881  30.5239142  53.9430370  23.4752490
  26.5348413  60.5050575  19.3385357  27.2299318  61.1257268  19.5572671
  26.8771563  59.6545927  19.6137734  12.1516223  52.3268376  33.1982174
  11.4097959  52.4751012  33.7846804  11.8308967  52.5876642  32.3348923
  28.4339836  57.9550281  20.8672687  28.9591161  58.2937554  20.1422007
  28.3462189  57.0197296  20.6835822  20.0959885  61.8684355  32.9962564
  20.4047012  61.6233501  33.8685263  20.8935367  62.0730993  32.5081434
  20.1180497  64.0222264  25.2267940  19.6785488  63.5298643  25.9200797
  20.8688614  63.4795232  24.9860016  12.5972836  60.2133805  25.2292569
  13.4230856  59.9137577  24.8491212  12.2466888  59.4441427  25.6782357
  17.5654369  59.5660273  27.2990242  16.9434379  58.9030978  26.9992470
  18.2359236  59.5921405  26.6163890  10.7981441  58.1320131  26.1881502
   9.9613350  57.7042306  26.0065503  10.7705087  58.3252575  27.1252293
  17.6378897  48.0442061  36.8922748  17.6867052  48.9204184  36.5100518
  18.1801411  47.5019454  36.3194391  28.1233743  58.5883184  36.1723885
  27.3329286  58.5707323  35.6328385  27.8867097  59.1271478  36.9272922
  28.2431618  55.4375651  33.4856614  28.2929623  55.2725658  34.4272137
  28.1345541  54.5702910  33.0954495  17.1267876  58.1164197  20.7748703
  17.2755997  58.7999661  20.1215375  17.9334320  58.0969287  21.2898158
  25.5335380  51.4206579  34.8015920  26.4345243  51.2813044  34.5099918
  25.6083354  51.5861034  35.7414098  19.8678185  48.7973434  33.6469107
  18.9981495  49.0907000  33.3751695  20.1037666  49.3813879  34.3676370
  29.7449814  57.8572592  33.7298635  29.4534623  58.2202573  34.5662096
  29.1321946  57.1439601  33.5511967  30.9445497  55.4225472  26.2501206
  31.7792388  55.8615276  26.4138766  31.0804626  54.9464125  25.4309451
  27.9937003  52.9805207  32.1978693  28.4691124  53.1732853  31.3897545
  27.0702568  53.0364393  31.9522077  14.8820509  54.1429374  21.7809772
  14.6366551  53.2391704  21.9789982  15.0516424  54.1446525  20.8389250
  22.5717219  45.0153051  31.1634527  23.0899163  45.7514078  30.8381016
  22.2172352  45.3217044  31.9981286  14.1516157  49.8757732  19.2795933
  13.4585402  49.9502087  18.6235969  13.9067909  49.1118075  19.8017450
  22.8229813  41.4353333  26.6835424  23.1031567  40.7676522  27.3095850
  23.6080420  41.6282429  26.1710088  20.6263282  60.6112327  18.2460450
  20.0537249  61.2302514  17.7930922  21.1996075  61.1611689  18.7800372
  26.6938672  49.8570967  30.4306999  27.6456095  49.9569065  30.4519223
  26.5242122  49.0649236  30.9405083  24.7153051  46.9426550  30.6166400
  24.1202983  47.2231563  29.9212888  24.4302748  47.4320451  31.3883141
  23.8460542  60.8949477  19.3769032  24.7791215  60.8295039  19.5801908
  23.7583754  61.7305744  18.9183565  26.4748558  60.2115347  16.3372980
  26.3962190  59.8775211  17.2308738  27.2958225  60.7037115  16.3364452
  29.1726749  53.0777087  29.5449299  29.1403070  52.1393088  29.7308982
  29.7827373  53.1561124  28.8115123  21.0110080  51.9473140  15.5876503
  21.9569185  51.8179348  15.6564921  20.6324325  51.2087802  16.0645931
  29.3221238  49.8688130  29.5907582  28.8060287  49.0846587  29.4037511
  30.2061186  49.5406847  29.7554101  26.9831965  43.6129146  25.5503394
  26.7856786  43.3044234  26.4346726  27.5931670  44.3390785  25.6801324
  34.9903299  54.1393094  28.6855335  35.7206688  53.8778382  29.2463039
  34.3810245  53.4021816  28.7257403  33.0718596  52.2800956  29.2829787
  32.3451760  52.1456921  28.6746278  32.6565883  52.5877785  30.0886505
  20.8948773  55.9990886  37.0477160  21.8151782  56.1769485  37.2417206
  20.8598356  55.0546931  36.8956859  19.1952997  49.8723116  15.5231388
  18.2884453  49.5756229  15.5994101  19.4728978  49.5752934  14.6565674
  10.1130938  51.1929480  25.9730434   9.7933722  50.3394788  25.6804808
   9.5664366  51.4078058  26.7288402  13.8910845  53.9091921  29.6899941
  14.1096855  54.8409028  29.7087975  14.3036619  53.5499895  30.4754745
  20.8115063  44.4160006  21.6775629  20.0015791  44.0707091  22.0530875
  21.4999480  44.1067550  22.2663241  22.7405611  43.4938053  23.2999926
  23.2936650  43.9133506  23.9589949  22.9775698  42.5673801  23.3422882
  18.7638711  49.4825126  39.0802690  18.6635438  50.4319483  39.0114781
  18.5460253  49.1543365  38.2078760  17.9651782  46.7310051  15.6643367
  18.8270946  47.0564950  15.9239184  18.1502126  45.9441547  15.1516433
   9.9819198  54.8132391  27.9423556   9.2882669  54.3986344  27.4293510
  10.7292189  54.8552928  27.3456975  26.1184419  45.6038578  22.8078590
  25.5383088  46.2623382  22.4256642  25.8520351  44.7815922  22.3966008
  24.5687985  45.0043636  25.0099910  25.0687763  45.1160170  24.2014229
  25.2123593  44.7004688  25.6500719  18.6269981  52.9122265  37.8967751
  18.1437062  53.7122625  38.1031640  18.7130920  52.9230210  36.9435195
  11.8955940  54.7450645  25.8189571  11.8726628  54.8438332  24.8671454
  12.2056577  55.5915796  26.1406737  14.5543318  56.8026800  29.9336185
  15.5086572  56.7710742  29.8666117  14.3555842  56.3417424  30.7486411
  15.1442700  55.3727916  32.5006983  15.9635589  55.8671995  32.5241820
  15.4179508  54.4559884  32.4724550  24.9009297  47.7638668  21.8634938
  24.0135152  48.0488319  21.6455133  25.3163286  47.6032432  21.0162215
  28.2523833  47.7885189  25.5789278  29.0284223  48.2781642  25.8513894
  27.5271967  48.2143243  26.0361147  30.6896391  48.5012808  26.6363218
  31.2840882  48.2608544  25.9256526  30.7622975  47.7819939  27.2636754
  12.9093547  62.3446419  26.9506383  12.7748015  61.5846820  26.3844381
  12.4925609  63.0687319  26.4835172  24.0452510  57.5283343  15.9582958
  24.7488360  57.7333345  16.5740614  23.3215159  58.0960105  16.2232042
  24.8750320  53.2793204  22.0785228  24.8185522  53.7361756  21.2392861
  25.4278663  52.5183889  21.9008071  28.6855126  49.0682936  22.9035348
  28.4292060  48.6679572  23.7343556  28.0607994  49.7826730  22.7785487
  32.9967464  51.8079009  25.4106639  32.4367022  51.8772199  26.1838201
  32.3910967  51.6319994  24.6906136  16.0662673  63.2415736  27.1624826
  15.9495057  64.1861169  27.0603516  15.2455119  62.9389298  27.5510625
  25.9539207  57.9665872  18.0081418  26.7884811  57.5347071  17.8258893
  25.7923550  57.7947886  18.9358313  25.6085100  54.4697985  19.3737758
  25.5533903  54.3042257  18.4326202  24.9831155  55.1774018  19.5299947
  10.3977615  49.7066050  33.1999180  11.0436478  49.1965004  33.6886405
  10.1894766  50.4434731  33.7742605  22.9231007  56.7746897  38.6991320
  23.7922166  56.9487550  38.3377955  22.4437758  57.5941314  38.5767050
  18.9181225  43.9706094  18.9523076  18.9059895  44.9147934  19.1091347
  19.8104647  43.7876240  18.6582537  17.0917187  63.8943998  30.3780754
  17.9944434  63.9267609  30.6947249  16.8654557  62.9644449  30.3927090
  18.8470789  62.6474985  27.0390833  17.8966420  62.6476846  26.9255205
  19.1503275  61.9007719  26.5226867  22.7333345  40.5648871  23.2069013
  21.9665740  40.0107358  23.3525695  23.1444050  40.6370740  24.0683164
  14.7375106  46.8533667  37.2974194  15.6006567  46.4970472  37.5077519
  14.1640516  46.5147562  37.9849598  34.5823483  68.4835523  28.1036595
  35.2201892  68.3642271  27.3999935  34.4644325  69.4316367  28.1624547
  31.3913189  68.4362951  28.0398120  31.0531700  68.3204016  27.1518655
  32.2602957  68.0354116  28.0199126  27.2500004  70.2898428  24.0295011
  26.6864870  70.1988365  23.2611298  27.1352400  69.4698332  24.5097503
  31.8732972  69.5897803  33.9984325  31.8621613  69.1950601  33.1264829
  32.0353611  68.8563876  34.5918097  24.7964436  71.7849619  26.8679231
  25.5885728  71.4440444  26.4525530  25.0361087  71.8944594  27.7881384
  32.8299563  73.9569395  19.3409476  32.1787543  74.5423476  18.9543489
  33.6243926  74.4875590  19.4004513  26.7555190  71.0458533  19.7396610
  27.5286066  70.4987520  19.6009486  27.1080589  71.9102782  19.9511071
  28.5940233  72.3734915  32.9463509  28.3030099  73.2780546  32.8310176
  29.2297217  72.4151442  33.6607579  29.5196440  69.7511763  29.5364869
  30.1160012  69.5267786  28.8221832  29.5771411  69.0096509  30.1390317
  29.0921468  67.2051199  17.3715060  29.3446989  66.6832720  16.6098523
  28.1546027  67.0417344  17.4741743  34.1364751  66.2086977  25.1789803
  34.9227840  65.7906400  24.8280220  34.4003455  67.1133069  25.3471451
  34.3074828  71.6459827  19.8778460  33.6720661  71.7194454  20.5899365
  33.9772235  72.2353426  19.1997539  28.8117757  69.1079305  19.5739435
  28.6954015  68.4324208  20.2420519  28.9220017  68.6211679  18.7571588
  31.1549298  68.5689452  23.2786124  30.7907505  68.0420073  23.9899046
  32.0116414  68.1787921  23.1052609  37.0598598  59.8583784  30.5417390
  36.7281923  60.7279195  30.3178605  36.4644212  59.5420068  31.2211421
  30.7954785  63.5979351  18.2747473  30.9629187  64.4659588  18.6417944
  30.6051954  63.7606633  17.3508762  33.5530118  72.0596330  29.9413303
  33.2530841  72.9621369  29.8329110  33.2081178  71.7928514  30.7934456
  27.0042599  68.5110127  25.9750007  26.0793096  68.3786341  26.1827699
  27.2527013  69.2904346  26.4719950  36.9527262  64.5778871  27.6210740
  36.0444139  64.5094279  27.3269501  36.9014858  65.0550815  28.4492566
  30.7744006  66.0537009  19.2594139  30.6543631  66.4994060  20.0979620
  30.0796594  66.4022327  18.7007678  24.3651411  68.1543401  26.8093796
  24.4943792  68.4077880  27.7233208  23.6848862  68.7471109  26.4898452
  28.5350898  78.8240651  22.9084271  28.4574928  79.7748476  22.9872751
  27.9312541  78.4786523  23.5659197  31.0268128  65.9968516  35.5645638
  30.2501462  66.5562436  35.5548502  31.6658691  66.4825299  36.0860508
  36.4729072  66.5258482  20.0874473  37.3846928  66.7585869  19.9122171
  35.9638719  67.1095526  19.5249552  29.2814500  68.8053969  35.1263605
  30.0229184  69.3439013  34.8498428  28.5751485  69.4320258  35.2835156
  34.7569840  70.9483110  33.7235766  35.1653196  70.5065520  32.9790398
  34.0347101  70.3735737  33.9769959  31.1100910  65.8855717  31.0969323
  31.9562105  66.3095130  31.2403972  31.0499547  65.2289341  31.7907886
  35.0798654  71.5084301  27.4788055  34.4507517  71.6730015  26.7764123
  34.6924316  71.9225910  28.2499019  38.9587886  72.4438738  24.8332419
  38.2738924  72.8237640  24.2829452  39.0431735  73.0534065  25.5664366
  34.2600355  63.5460085  32.7550497  34.0161287  64.3002146  32.2184772
  34.5360285  63.9245433  33.5897744  36.2138818  70.0898697  31.4327762
  36.4255713  70.7330457  30.7562143  36.1668566  69.2561014  30.9649692
  33.8165047  62.7016518  28.3364334  32.9549526  62.9997772  28.6281072
  33.8427481  62.9186917  27.4045367  30.6326616  71.2458709  24.7438140
  31.0964962  71.5246412  23.9542763  30.3683414  70.3442153  24.5611231
  27.5250697  70.7930190  27.6817903  28.0952054  71.2217459  27.0435388
  28.1158809  70.5112775  28.3802089  29.5695502  67.3681861  21.5527705
  30.2719545  67.8202905  22.0201632  29.2376131  66.7265680  22.1807598
  28.0175864  65.9593618  35.9278915  27.3874524  66.6409899  36.1614311
  27.9111952  65.8476699  34.9832053  23.3120836  65.6265414  26.8544839
  22.5219890  65.8822942  26.3784949  23.8032083  66.4413752  26.9596879
  37.3284646  72.9670653  29.6050120  38.1502089  72.5650840  29.3232801
  37.3247049  72.8638887  30.5566235  25.2635581  65.9909993  23.8128315
  24.4666745  66.1028687  24.3311811  25.0361174  66.3296645  22.9469206
  31.0941249  72.5154696  31.7610830  31.1585682  72.9775103  32.5969002
  30.3852173  71.8852061  31.8893140  21.5958539  65.8795904  29.2859830
  21.8466577  66.7642914  29.5517405  22.1318087  65.7000506  28.5134921
  30.8089267  74.1822804  21.6289810  30.6734942  75.0274339  22.0574658
  31.3499079  74.3842081  20.8655744  27.2956606  60.2614384  38.2904166
  26.9023552  59.7080582  38.9651810  28.1122747  60.5724962  38.6810683
  24.2618664  71.6998242  22.2017735  24.7743185  72.4941492  22.3523300
  24.9141377  71.0024532  22.1351337  26.0713549  74.8163998  24.2840489
  26.2480177  75.7381963  24.0961473  26.8670382  74.5022417  24.7134868
  30.2124567  61.6772263  35.8824422  30.9534281  62.2779416  35.8028885
  30.4442490  60.9349900  35.3242465  25.3565905  66.8628630  34.1602652
  25.2419421  65.9613887  34.4609751  24.5010423  67.1092327  33.8087468
  32.4357743  74.8046370  35.7590152  31.9921597  74.0182749  35.4411057
  33.0974957  74.9925521  35.0934043  27.1944864  76.3342172  30.2850831
  27.7452289  76.2059235  29.5127825  26.3556340  76.6337061  29.9345724
  34.5338981  75.0849170  33.7871554  34.5157457  75.9058051  33.2951823
  35.4558901  74.9603245  34.0121695  30.9912035  72.5993300  34.6295062
  31.5240372  71.8381588  34.3994370  30.4626116  72.3066951  35.3719217
  34.1581730  57.7053366  30.1588704  33.8146000  58.5955007  30.0827814
  34.5260693  57.5155023  29.2958289  22.2267581  70.0286896  22.9777306
  23.0642803  70.4383904  22.7611014  22.4045849  69.0886338  22.9477500
  34.1232013  67.6961977  18.6661139  33.6078636  68.4666581  18.9049526
  33.8509321  67.0227113  19.2894200  31.7079124  62.5411677  23.7246377
  30.8520720  62.1518528  23.5452016  32.1206076  62.6203638  22.8646163
  33.2378271  60.0758021  28.1237937  32.7343066  60.0388156  27.3105742
  33.5308878  60.9850763  28.1834594  29.4821157  60.1596750  27.1304119
  30.3474153  59.9639559  26.7710008  29.5498665  59.9307102  28.0573476
  39.0966287  70.4494331  20.6014312  38.3195730  70.1105491  20.1569475
  39.7757768  70.4546954  19.9269277  33.9118316  65.5689069  20.4920920
  33.6068452  65.8835218  21.3431063  34.8648758  65.6470489  20.5348253
  32.3564748  71.7279292  22.1413874  31.8286110  70.9932052  21.8287112
  31.8552251  72.5053968  21.8953842  37.3357594  69.9228313  27.2580920
  36.6781269  70.6127574  27.3461049  38.1397993  70.3124744  27.6014907
  27.0883476  62.3898958  24.5020486  27.6627228  62.1674140  23.7693679
  27.6754458  62.4587653  25.2549087  36.1463053  68.2772685  25.3084862
  36.6594935  68.9102677  25.8106572  36.7964277  67.6773881  24.9428222
  27.4153063  64.4203419  18.5216371  26.5790375  64.7578106  18.8425646
  27.2757832  64.2852399  17.5843508  29.3906143  59.2640207  23.2295555
  28.7370556  58.9489224  22.6052170  29.3486618  58.6415948  23.9555378
  30.5017348  69.5459502  15.1448847  29.5944410  69.3148756  15.3439996
  30.9988380  68.7497122  15.3322829  33.4085427  78.2557010  18.0645533
  32.7347126  78.5588706  18.6730491  33.7951249  79.0586090  17.7150990
  32.6243884  65.7522141  27.5543203  31.7066445  65.9737088  27.3964891
  33.0404027  65.8268451  26.6954910  33.4078931  67.1513556  22.6845883
  34.1550750  67.6634954  22.3753005  33.6770521  66.8297609  23.5450277
  31.6805582  69.6472097  19.6672837  30.7716801  69.3631130  19.7645307
  31.7100665  70.0671176  18.8076144  36.9124849  73.2578687  23.4364005
  36.4587176  72.4169597  23.4929195  36.2818816  73.8940085  23.7738785
  35.8557769  64.1870673  24.6664672  35.1180525  63.6748059  24.9974915
  36.1084542  63.7471054  23.8547949  35.3557788  75.0955183  24.3713823
  35.6480763  75.6560240  23.6526189  35.8656409  75.3883744  25.1266982
  22.2493752  67.3677611  23.6488039  22.0518152  66.7746972  22.9239106
  21.6940416  67.0629821  24.3663978  30.2290476  67.2600718  25.7682633
  30.2839085  66.3074554  25.6925109  29.4181678  67.4160157  26.2523931
  31.3781669  71.1880841  17.0060916  30.9401099  70.4716700  16.5466553
  32.1192110  71.4156956  16.4446007  28.1682836  65.8777778  23.5273011
  27.3550701  66.1771948  23.9338204  28.6641830  65.4833466  24.2447494
  30.3191414  75.8735534  25.4607276  30.2767592  76.0996381  24.5315808
  31.2354112  75.6398909  25.6093077  33.7657047  66.3419602  32.3587905
  34.1206435  66.5691075  33.2182371  34.4129179  66.6737979  31.7365161
  39.4954784  69.4638038  23.0637234  39.3572683  69.6539634  22.1358424
  39.1391003  70.2257421  23.5205286  27.6596910  63.4496133  29.1434246
  28.2996290  63.3084892  28.4457210  26.8274441  63.1630646  28.7672848
  39.5224164  71.5314565  28.0748506  39.9560671  71.4389854  28.9231560
  40.2355745  71.5072065  27.4368522  28.4357214  72.7498563  25.2569239
  29.2297813  72.2548884  25.0551814  27.7248907  72.2216427  24.8936944
  33.2552059  75.1316659  29.6081606  33.3089081  75.7007595  30.3759322
  32.3866840  75.3018544  29.2435644  24.7439978  66.8941645  21.3328992
  23.8137566  66.8326101  21.5498954  24.8397450  66.3717598  20.5365633
  24.6625527  63.4196458  23.9207233  24.9232344  64.3341791  23.8116394
  25.4842699  62.9520901  24.0703846  26.1350452  64.8334215  31.0906058
  26.8073506  64.6251577  30.4418707  25.3080239  64.6356301  30.6511290
  40.3839713  71.5738266  30.6081391  40.5775603  72.4784076  30.8540666
  40.2840332  71.1145685  31.4419976  32.0376024  61.4596156  33.1071719
  31.3903939  62.1586106  33.0136195  32.8077040  61.8932300  33.4747967
  35.4454822  71.7245008  36.1822272  35.2940329  71.4955560  35.2652356
  35.4359502  72.6815610  36.1953617  32.2140159  69.2976921  31.1668538
  33.1432219  69.4488081  30.9937506  31.7931189  69.3860942  30.3117185
  31.0128490  73.3227585  28.9367076  30.8739576  72.9546370  29.8093014
  30.2243087  73.8375225  28.7651034  31.6076642  78.4236682  20.2792612
  31.7828398  77.9524725  21.0938235  30.9209430  79.0502448  20.5073873
  32.5633705  72.7009188  26.3255914  32.2283538  72.6609958  27.2213564
  32.0637651  72.0353904  25.8526324  26.5377949  68.1076818  31.8508495
  26.3997747  67.3757057  32.4520034  27.4482873  68.0185718  31.5692683
  35.4992897  70.0465222  16.5992973  34.8822068  69.3212051  16.5026026
  35.0309386  70.8074583  16.2560048  29.1660250  67.8196778  31.3392175
  29.8759869  67.1789970  31.2978793  29.1229558  68.0709672  32.2618355
  37.1547029  74.7564131  34.2598754  37.0959575  74.0723351  33.5929337
  37.5566547  75.4983121  33.8079380  27.8789184  64.8061995  33.1587814
  27.3426541  64.3552734  33.8109410  27.2905892  64.9407904  32.4158278
  26.1737728  81.5726045  27.0532473  26.4134326  82.2044569  27.7311491
  25.3306924  81.2214085  27.3397832  27.2891443  64.2650647  15.7214278
  26.4120909  64.1439448  15.3576524  27.7649196  63.4736725  15.4693166
  37.1564436  72.7203715  32.4912733  36.2691215  72.3829637  32.6139132
  37.7262987  71.9886746  32.7281499  18.8093583  69.0527807  25.8155785
  19.4964623  68.7389537  25.2276800  18.6541712  69.9569171  25.5423036
  23.6128305  63.9418003  30.2440809  23.5286494  63.3343673  29.5091218
  22.7911012  64.4327021  30.2450305  30.6865589  77.3805167  29.4573977
  30.6135761  78.1860139  29.9693281  30.2442983  77.5797133  28.6321998
  30.4755369  76.6176937  22.9676798  29.6922891  77.1598617  23.0615023
  31.1748114  77.1350917  23.3671039  33.7852019  62.4271567  25.6111004
  34.2820719  61.6741529  25.2912074  33.0139001  62.4635883  25.0454213
  33.1464273  77.2792001  31.6132135  33.8592245  77.9139466  31.5408037
  32.6554302  77.3755867  30.7972137  34.8681800  71.1843254  23.1849427
  33.9338079  71.3044716  23.0154131  35.0458468  70.2815721  22.9209437
  30.3686988  64.5688950  25.3382688  29.9984775  64.0159990  26.0263594
  30.8646080  63.9647083  24.7857688  38.2554351  67.0260573  23.7199461
  38.7214803  67.8588565  23.6459764  38.7061852  66.5605555  24.4244720
  28.1976186  75.0286445  32.4337706  28.8985646  75.6622928  32.5867100
  27.7271301  75.3701176  31.6733345  36.3230582  73.3704394  20.7185613
  36.5990426  73.2560989  21.6279487  35.4535081  72.9721879  20.6797786
  36.2271014  59.3941160  27.7590362  35.3134094  59.6245387  27.9272569
  36.6564115  59.4779604  28.6104395  35.9977472  67.5831052  30.2590256
  35.3448923  67.8306960  29.6042709  36.3757852  66.7695190  29.9252734
  32.9584646  77.6190745  24.3618427  33.1407041  76.8012401  24.8246179
  33.7817632  77.8358438  23.9243317  33.2926812  76.5458930  21.6233475
  33.8214578  76.0351385  21.0103637  33.5555031  76.2301461  22.4879008
  32.0465045  68.3250863  36.7456294  31.3705682  68.2244992  37.4158669
  32.8692679  68.1690077  37.2092291  23.7943905  74.5622800  29.3668809
  24.3797341  73.8166488  29.4996713  23.5968743  74.8726756  30.2505473
  26.6482560  77.5974047  24.3831251  25.9792935  78.0820175  23.8995291
  26.5095429  77.8443268  25.2974630  18.3861559  67.1328400  28.0873252
  18.4245659  66.5991991  28.8810370  17.8801852  66.6063605  27.4684229
  30.7887828  79.6317791  30.9813910  31.3406136  79.7949412  31.7462995
  31.1294022  80.2222228  30.3093934  25.7652322  61.9792940  31.5835794
  25.8293648  62.8407771  31.1713192  25.7019442  61.3666942  30.8508153
  25.2404594  64.0516073  35.2308829  25.8676633  63.6693150  35.8446353
  24.3832513  63.8330275  35.5964521  35.6398703  74.4579048  36.8362564
  36.1838607  75.0709006  36.3417519  35.0585547  75.0158627  37.3529577
  22.0170137  65.8592502  21.1627183  22.3123578  64.9503180  21.1094237
  21.1158173  65.8380241  20.8408186  33.9256216  77.5799766  27.9677592
  33.8007355  76.7789506  27.4588537  34.5835307  78.0745959  27.4791562
  25.5464384  63.9348499  27.1454732  24.8250970  64.5484466  27.0062205
  26.3357640  64.4706263  27.0671378  35.9891124  75.3808786  29.5957142
  35.0421460  75.2614137  29.5235469  36.3373897  74.4931284  29.6783403
  28.3490697  61.2702925  33.4195384  28.8725099  61.5165222  34.1821693
  28.1303031  62.1022960  32.9998521  23.7457978  63.5406600  21.2866508
  23.4170685  62.6603979  21.1041614  24.0997349  63.4854268  22.1742898
  32.9937557  75.1761502  25.7961494  32.8462520  74.2478210  25.9769064
  33.8191051  75.1981593  25.3118569  26.8599802  63.8279569  21.6541986
  27.1995874  64.3565491  20.9320595  27.3071922  64.1659976  22.4300553
  36.5971679  75.9990061  26.8826367  37.5218227  75.7932922  26.7450818
  36.4286983  75.7506462  27.7915708  29.5543242  62.2116620  31.1045054
  29.2140063  61.4124433  31.5065734  28.8482249  62.5118331  30.5321887
  30.2059714  59.2965933  29.5572377  31.0285784  58.8226411  29.4351268
  30.4497778  60.0756416  30.0571064  28.8467949  62.3254191  19.8535279
  29.5676311  62.7035444  19.3498996  28.2233253  63.0443068  19.9570257
  32.9899072  63.0299340  20.7893611  33.2062686  63.9123978  20.4882439
  32.5093139  62.6385553  20.0599253  27.7298293  65.9885053  27.3664356
  27.5842874  66.3025356  28.2588637  27.2523497  66.6069954  26.8135254
  29.5894676  62.9787601  27.4145245  29.5756245  62.0828695  27.0777543
  30.3067104  62.9858265  28.0483531  31.4420807  63.4124941  29.4598373
  31.1838584  64.3342012  29.4582703  30.9105847  63.0155376  30.1498837
  22.2043955  68.5290398  30.3052017  21.6597423  69.3050206  30.4372291
  23.0823305  68.8761202  30.1471138  28.9931572  61.8601982  22.6832816
  29.1147483  60.9318628  22.8823703  28.7033614  61.8740668  21.7711131
  31.8622762  59.5456892  25.8199535  31.8844459  59.6096225  24.8651515
  32.2790821  58.7061401  26.0140042  42.2406387  69.2812152  23.8578758
  42.6837533  68.5319477  23.4597881  41.3632897  69.2722288  23.4752490
  37.3742168  75.8342493  19.3385357  38.0693072  76.4549186  19.5572671
  37.7165318  74.9837844  19.6137734  22.9909977  67.6560294  33.1982174
  22.2491713  67.8042929  33.7846804  22.6702721  67.9168560  32.3348923
  39.2733591  73.2842199  20.8672687  39.7984915  73.6229471  20.1422007
  39.1855944  72.3489214  20.6835822  30.9353640  77.1976272  32.9962564
  31.2440766  76.9525419  33.8685263  31.7329122  77.4022911  32.5081434
  30.9574252  79.3514182  25.2267940  30.5179242  78.8590561  25.9200797
  31.7082369  78.8087149  24.9860016  23.4366591  75.5425723  25.2292569
  24.2624611  75.2429495  24.8491212  23.0860643  74.7733345  25.6782357
  28.4048124  74.8952191  27.2990242  27.7828133  74.2322896  26.9992470
  29.0752991  74.9213323  26.6163890  21.6375196  73.4612049  26.1881502
  20.8007104  73.0334223  26.0065503  21.6098841  73.6544492  27.1252293
  28.4772651  63.3733979  36.8922748  28.5260807  64.2496102  36.5100518
  29.0195166  62.8311372  36.3194391  38.9627497  73.9175102  36.1723885
  38.1723041  73.8999241  35.6328385  38.7260852  74.4563396  36.9272922
  39.0825372  70.7667569  33.4856614  39.1323377  70.6017576  34.4272137
  38.9739295  69.8994828  33.0954495  27.9661631  73.4456114  20.7748703
  28.1149751  74.1291579  20.1215375  28.7728074  73.4261204  21.2898158
  36.3729134  66.7498497  34.8015920  37.2738997  66.6104961  34.5099918
  36.4477109  66.9152951  35.7414098  30.7071940  64.1265351  33.6469107
  29.8375249  64.4198917  33.3751695  30.9431420  64.7105796  34.3676370
  40.5843569  73.1864510  33.7298635  40.2928377  73.5494491  34.5662096
  39.9715700  72.4731518  33.5511967  41.7839251  70.7517390  26.2501206
  42.6186143  71.1907194  26.4138766  41.9198380  70.2756043  25.4309451
  25.7214264  69.4721292  21.7809772  25.4760306  68.5683622  21.9789982
  25.8910178  69.4738442  20.8389250  33.4110974  60.3444968  31.1634527
  33.9292917  61.0805995  30.8381016  33.0566106  60.6508962  31.9981286
  24.9909911  65.2049649  19.2795933  24.2979156  65.2794004  18.6235969
  24.7461663  64.4409993  19.8017450  33.6623568  56.7645251  26.6835424
  33.9425322  56.0968440  27.3095850  34.4474175  56.9574346  26.1710088
  31.4657036  75.9404245  18.2460450  30.8931003  76.5594432  17.7930922
  32.0389830  76.4903606  18.7800372  35.5546806  62.2718468  30.6166400
  34.9596738  62.5523481  29.9212888  35.2696502  62.7612369  31.3883141
  34.6854296  76.2241395  19.3769032  35.6184969  76.1586956  19.5801908
  34.5977509  77.0597662  18.9183565  37.3142313  75.5407265  16.3372980
  37.2355944  75.2067129  17.2308738  38.1351980  76.0329033  16.3364452
  31.8503835  67.2765057  15.5876503  32.7962940  67.1471266  15.6564921
  31.4718080  66.5379719  16.0645931  31.7342527  71.3282804  37.0477160
  32.6545537  71.5061403  37.2417206  31.6992110  70.3838849  36.8956859
  30.0346752  65.2015034  15.5231388  29.1278207  64.9048147  15.5994101
  30.3122733  64.9044852  14.6565674  20.9524692  66.5221397  25.9730434
  20.6327477  65.6686705  25.6804808  20.4058121  66.7369975  26.7288402
  24.7304600  69.2383838  29.6899941  24.9490610  70.1700946  29.7087975
  25.1430374  68.8791813  30.4754745  31.6508818  59.7451924  21.6775629
  30.8409546  59.3999009  22.0530875  32.3393235  59.4359467  22.2663241
  29.6032465  64.8117044  39.0802690  29.5029192  65.7611401  39.0114781
  29.3854007  64.4835283  38.2078760  28.8045537  62.0601969  15.6643367
  29.6664701  62.3856867  15.9239184  28.9895881  61.2733465  15.1516433
  20.8212952  70.1424309  27.9423556  20.1276424  69.7278262  27.4293510
  21.5685943  70.1844845  27.3456975  29.4663735  68.2414183  37.8967751
  28.9830817  69.0414543  38.1031640  29.5524674  68.2522128  36.9435195
  22.7349695  70.0742563  25.8189571  22.7120383  70.1730250  24.8671454
  23.0450331  70.9207713  26.1406737  25.3937073  72.1318718  29.9336185
  26.3480326  72.1002660  29.8666117  25.1949596  71.6709341  30.7486411
  25.9836455  70.7019834  32.5006983  26.8029344  71.1963912  32.5241820
  26.2573263  69.7851802  32.4724550  35.7403051  63.0930586  21.8634938
  34.8528906  63.3780237  21.6455133  36.1557040  62.9324349  21.0162215
  39.0917587  63.1177107  25.5789278  39.8677977  63.6073559  25.8513894
  38.3665721  63.5435161  26.0361147  23.7487302  77.6738337  26.9506383
  23.6141769  76.9138738  26.3844381  23.3319364  78.3979237  26.4835172
  34.8846265  72.8575261  15.9582958  35.5882115  73.0625263  16.5740614
  34.1608913  73.4252022  16.2232042  35.7144075  68.6085122  22.0785228
  35.6579276  69.0653673  21.2392861  36.2672417  67.8475806  21.9008071
  39.5248881  64.3974854  22.9035348  39.2685815  63.9971489  23.7343556
  38.9001749  65.1118648  22.7785487  43.8361219  67.1370927  25.4106639
  43.2760777  67.2064116  26.1838201  43.2304722  66.9611912  24.6906136
  26.9056427  78.5707654  27.1624826  26.7888812  79.5153087  27.0603516
  26.0848874  78.2681216  27.5510625  36.7932962  73.2957790  18.0081418
  37.6278566  72.8638988  17.8258893  36.6317305  73.1239803  18.9358313
  36.4478854  69.7989903  19.3737758  36.3927658  69.6334174  18.4326202
  35.8224909  70.5065936  19.5299947  21.2371369  65.0357967  33.1999180
  21.8830233  64.5256921  33.6886405  21.0288520  65.7726649  33.7742605
  33.7624761  72.1038815  38.6991320  34.6315921  72.2779467  38.3377955
  33.2831513  72.9233232  38.5767050  29.7574980  59.2998012  18.9523076
  29.7453649  60.2439852  19.1091347  30.6498401  59.1168157  18.6582537
  27.9310942  79.2235916  30.3780754  28.8338188  79.2559526  30.6947249
  27.7048312  78.2936367  30.3927090  29.6864544  77.9766902  27.0390833
  28.7360175  77.9768764  26.9255205  29.9897030  77.2299637  26.5226867
  25.5768860  62.1825585  37.2974194  26.4400322  61.8262389  37.5077519
  25.0034271  61.8439479  37.9849598  45.4217237  83.8127441  28.1036595
  46.0595647  83.6934188  27.3999935  45.3038080  84.7608285  28.1624547
  42.2306943  83.7654869  28.0398120  41.8925455  83.6495934  27.1518655
  43.0996711  83.3646034  28.0199126  38.0893759  85.6190345  24.0295011
  37.5258624  85.5280282  23.2611298  37.9746154  84.7990250  24.5097503
  42.7126726  84.9189721  33.9984325  42.7015367  84.5242519  33.1264829
  42.8747366  84.1855793  34.5918097  35.6358191  87.1141537  26.8679231
  36.4279483  86.7732362  26.4525530  35.8754841  87.2236512  27.7881384
  43.6693318  89.2861313  19.3409476  43.0181297  89.8715394  18.9543489
  44.4637681  89.8167508  19.4004513  37.5948945  86.3750450  19.7396610
  38.3679821  85.8279437  19.6009486  37.9474344  87.2394700  19.9511071
  39.4333987  87.7026833  32.9463509  39.1423853  88.6072463  32.8310176
  40.0690972  87.7443360  33.6607579  40.3590194  85.0803681  29.5364869
  40.9553767  84.8559703  28.8221832  40.4165166  84.3388427  30.1390317
  39.9315223  82.5343116  17.3715060  40.1840743  82.0124638  16.6098523
  38.9939782  82.3709262  17.4741743  44.9758506  81.5378895  25.1789803
  45.7621595  81.1198318  24.8280220  45.2397210  82.4424987  25.3471451
  45.1468583  86.9751745  19.8778460  44.5114416  87.0486372  20.5899365
  44.8165989  87.5645344  19.1997539  50.3766933  81.4754128  26.0822782
  51.1092105  80.9053345  26.3160611  49.6206288  81.0875728  26.5229287
  39.6511511  84.4371222  19.5739435  39.5347770  83.7616126  20.2420519
  39.7613771  83.9503596  18.7571588  41.9943052  83.8981369  23.2786124
  41.6301260  83.3711990  23.9899046  42.8510168  83.5079838  23.1052609
  47.8992353  75.1875702  30.5417390  47.5675678  76.0571113  30.3178605
  47.3037966  74.8711986  31.2211421  41.6348539  78.9271269  18.2747473
  41.8022942  79.7951506  18.6417944  41.4445708  79.0898551  17.3508762
  44.3923873  87.3888248  29.9413303  44.0924596  88.2913287  29.8329110
  44.0474932  87.1220431  30.7934456  37.8436354  83.8402045  25.9750007
  36.9186850  83.7078259  26.1827699  38.0920767  84.6196264  26.4719950
  47.7921016  79.9070788  27.6210740  46.8837894  79.8386197  27.3269501
  47.7408612  80.3842733  28.4492566  41.6137760  81.3828927  19.2594139
  41.4937385  81.8285977  20.0979620  40.9190349  81.7314244  18.7007678
  35.2045165  83.4835318  26.8093796  35.3337546  83.7369797  27.7233208
  34.5242616  84.0763026  26.4898452  39.3744652  94.1532568  22.9084271
  39.2968682  95.1040393  22.9872751  38.7706296  93.8078441  23.5659197
  41.8661882  81.3260434  35.5645638  41.0895216  81.8854354  35.5548502
  42.5052445  81.8117217  36.0860508  49.6582663  78.1087227  29.3988614
  49.0157043  78.4019760  28.7528409  49.1537591  77.9940147  30.2041811
  47.3122826  81.8550400  20.0874473  48.2240682  82.0877787  19.9122171
  46.8032473  82.4387444  19.5249552  40.1208254  84.1345887  35.1263605
  40.8622939  84.6730931  34.8498428  39.4145240  84.7612176  35.2835156
  45.5963594  86.2775028  33.7235766  46.0046950  85.8357438  32.9790398
  44.8740856  85.7027655  33.9769959  41.9494664  81.2147634  31.0969323
  42.7955859  81.6387048  31.2403972  41.8893302  80.5581259  31.7907886
  45.9192409  86.8376218  27.4788055  45.2901271  87.0021932  26.7764123
  45.5318071  87.2517828  28.2499019  49.7981641  87.7730656  24.8332419
  49.1132679  88.1529557  24.2829452  49.8825490  88.3825983  25.5664366
  45.0994109  78.8752003  32.7550497  44.8555041  79.6294063  32.2184772
  45.3754040  79.2537350  33.5897744  47.0532572  85.4190615  31.4327762
  47.2649467  86.0622375  30.7562143  47.0062320  84.5852932  30.9649692
  44.6558801  78.0308436  28.3364334  43.7943280  78.3289689  28.6281072
  44.6821236  78.2478835  27.4045367  41.4720371  86.5750626  24.7438140
  41.9358716  86.8538329  23.9542763  41.2077169  85.6734071  24.5611231
  38.3644452  86.1222108  27.6817903  38.9345809  86.5509376  27.0435388
  38.9552563  85.8404693  28.3802089  40.4089257  82.6973779  21.5527705
  41.1113300  83.1494822  22.0201632  40.0769885  82.0557598  22.1807598
  38.8569618  81.2885535  35.9278915  38.2268279  81.9701816  36.1614311
  38.7505706  81.1768617  34.9832053  34.1514591  80.9557331  26.8544839
  33.3613645  81.2114860  26.3784949  34.6425838  81.7705669  26.9596879
  48.1678400  88.2962571  29.6050120  48.9895844  87.8942758  29.3232801
  48.1640803  88.1930805  30.5566235  36.1029336  81.3201911  23.8128315
  35.3060499  81.4320605  24.3311811  35.8754928  81.6588563  22.9469206
  41.9335004  87.8446614  31.7610830  41.9979436  88.3067021  32.5969002
  41.2245927  87.2143979  31.8893140  32.4352294  81.2087822  29.2859830
  32.6860332  82.0934832  29.5517405  32.9711842  81.0292423  28.5134921
  56.2584393  84.6401319  25.9535091  55.5048102  84.0708717  25.7979095
  56.3931934  84.6063984  26.9005726  41.6483021  89.5114721  21.6289810
  41.5128696  90.3566257  22.0574658  42.1892834  89.7133999  20.8655744
  38.1350361  75.5906301  38.2904166  37.7417306  75.0372500  38.9651810
  38.9516501  75.9016880  38.6810683  35.1012419  87.0290159  22.2017735
  35.6136939  87.8233410  22.3523300  35.7535131  86.3316450  22.1351337
  36.9107303  90.1455916  24.2840489  37.0873932  91.0673880  24.0961473
  37.7064137  89.8314335  24.7134868  41.0518322  77.0064180  35.8824422
  41.7928035  77.6071333  35.8028885  41.2836245  76.2641818  35.3242465
  36.1959660  82.1920548  34.1602652  36.0813175  81.2905805  34.4609751
  35.3404178  82.4384244  33.8087468  43.2751498  90.1338288  35.7590152
  42.8315352  89.3474666  35.4411057  43.9368711  90.3217438  35.0934043
  38.0338619  91.6634089  30.2850831  38.5846044  91.5351153  29.5127825
  37.1950095  91.9628978  29.9345724  45.3732736  90.4141088  33.7871554
  45.3551211  91.2349969  33.2951823  46.2952656  90.2895163  34.0121695
  41.8305790  87.9285217  34.6295062  42.3634127  87.1673505  34.3994370
  41.3019871  87.6358869  35.3719217  44.9975485  73.0345283  30.1588704
  44.6539754  73.9246925  30.0827814  45.3654447  72.8446941  29.2958289
  33.0661335  85.3578814  22.9777306  33.9036557  85.7675822  22.7611014
  33.2439603  84.4178256  22.9477500  44.9625768  83.0253894  18.6661139
  44.4472391  83.7958499  18.9049526  44.6903076  82.3519030  19.2894200
  42.5472879  77.8703595  23.7246377  41.6914475  77.4810445  23.5452016
  42.9599830  77.9495556  22.8646163  44.0772025  75.4049938  28.1237937
  43.5736821  75.3680074  27.3105742  44.3702632  76.3142681  28.1834594
  40.3214911  75.4888668  27.1304119  41.1867908  75.2931477  26.7710008
  40.3892420  75.2599020  28.0573476  49.9360042  85.7786249  20.6014312
  49.1589484  85.4397408  20.1569475  50.6151523  85.7838872  19.9269277
  44.7512071  80.8980986  20.4920920  44.4462206  81.2127136  21.3431063
  45.7042513  80.9762406  20.5348253  43.1958503  87.0571210  22.1413874
  42.6679864  86.3223969  21.8287112  42.6946005  87.8345886  21.8953842
  48.1751349  85.2520230  27.2580920  47.5175023  85.9419492  27.3461049
  48.9791748  85.6416662  27.6014907  37.9277230  77.7190876  24.5020486
  38.5020982  77.4966058  23.7693679  38.5148213  77.7879571  25.2549087
  46.9856807  83.6064603  25.3084862  47.4988689  84.2394595  25.8106572
  47.6358031  83.0065798  24.9428222  38.2546817  79.7495337  18.5216371
  37.4184130  80.0870024  18.8425646  38.1151587  79.6144317  17.5843508
  40.2299898  74.5932125  23.2295555  39.5764310  74.2781142  22.6052170
  40.1880372  73.9707865  23.9555378  41.3411103  84.8751420  15.1448847
  40.4338164  84.6440673  15.3439996  41.8382135  84.0789039  15.3322829
  44.2479182  93.5848927  18.0645533  43.5740880  93.8880624  18.6730491
  44.6345004  94.3878008  17.7150990  43.4637638  81.0814058  27.5543203
  42.5460200  81.3029005  27.3964891  43.8797782  81.1560369  26.6954910
  44.2472686  82.4805474  22.6845883  44.9944505  82.9926871  22.3753005
  44.5164276  82.1589527  23.5450277  42.5199336  84.9764015  19.6672837
  41.6110555  84.6923048  19.7645307  42.5494420  85.3963093  18.8076144
  47.7518604  88.5870604  23.4364005  47.2980931  87.7461514  23.4929195
  47.1212570  89.2232003  23.7738785  46.6951523  79.5162590  24.6664672
  45.9574280  79.0039977  24.9974915  46.9478297  79.0762972  23.8547949
  46.1951543  90.4247101  24.3713823  46.4874517  90.9852158  23.6526189
  46.7050163  90.7175662  25.1266982  46.7963150  72.2938842  25.2606442
  47.1022027  71.4336206  24.9732357  47.5215755  72.8856463  25.0605435
  33.0887507  82.6969529  23.6488039  32.8911906  82.1038890  22.9239106
  32.5334171  82.3921739  24.3663978  41.0684230  82.5892635  25.7682633
  41.1232840  81.6366472  25.6925109  40.2575432  82.7452075  26.2523931
  42.2175424  86.5172759  17.0060916  41.7794854  85.8008617  16.5466553
  42.9585865  86.7448873  16.4446007  39.0076590  81.2069695  23.5273011
  38.1944456  81.5063866  23.9338204  39.5035584  80.8125384  24.2447494
  41.1585168  91.2027452  25.4607276  41.1161347  91.4288298  24.5315808
  42.0747867  90.9690827  25.6093077  44.6050802  81.6711520  32.3587905
  44.9600190  81.8982993  33.2182371  45.2522933  82.0029896  31.7365161
  50.3348539  84.7929956  23.0637234  50.1966437  84.9831552  22.1358424
  49.9784758  85.5549338  23.5205286  38.4990665  78.7788051  29.1434246
  39.1390044  78.6376810  28.4457210  37.6668195  78.4922564  28.7672848
  50.3617918  86.8606483  28.0748506  50.7954425  86.7681772  28.9231560
  51.0749499  86.8363983  27.4368522  39.2750969  88.0790481  25.2569239
  40.0691567  87.5840801  25.0551814  38.5642661  87.5508344  24.8936944
  44.0945813  90.4608577  29.6081606  44.1482836  91.0299513  30.3759322
  43.2260595  90.6310462  29.2435644  35.5833732  82.2233563  21.3328992
  34.6531320  82.1618018  21.5498954  35.6791204  81.7009516  20.5365633
  35.5019281  78.7488376  23.9207233  35.7626099  79.6633709  23.8116394
  36.3236454  78.2812818  24.0703846  36.9744207  80.1626133  31.0906058
  37.6467260  79.9543495  30.4418707  36.1473993  79.9648219  30.6511290
  51.2233468  86.9030183  30.6081391  51.4169358  87.8075994  30.8540666
  51.1234086  86.4437602  31.4419976  42.8769779  76.7888074  33.1071719
  42.2297694  77.4878023  33.0136195  43.6470794  77.2224218  33.4747967
  46.2848577  87.0536926  36.1822272  46.1334083  86.8247478  35.2652356
  46.2753256  88.0107527  36.1953617  43.0533913  84.6268839  31.1668538
  43.9825973  84.7779998  30.9937506  42.6324943  84.7152860  30.3117185
  41.8522245  88.6519503  28.9367076  41.7133330  88.2838288  29.8093014
  41.0636841  89.1667143  28.7651034  42.4470397  93.7528600  20.2792612
  42.6222152  93.2816643  21.0938235  41.7603185  94.3794366  20.5073873
  43.4027460  88.0301106  26.3255914  43.0677293  87.9901876  27.2213564
  42.9031406  87.3645822  25.8526324  37.3771704  83.4368736  31.8508495
  37.2391502  82.7048975  32.4520034  38.2876627  83.3477636  31.5692683
  46.3386652  85.3757140  16.5992973  45.7215822  84.6503968  16.5026026
  45.8703140  86.1366500  16.2560048  40.0054005  83.1488695  31.3392175
  40.7153623  82.5081887  31.2978793  39.9623313  83.4001590  32.2618355
  47.9940783  90.0856049  34.2598754  47.9353329  89.4015269  33.5929337
  48.3960302  90.8275039  33.8079380  38.7182939  80.1353913  33.1587814
  38.1820296  79.6844652  33.8109410  38.1299647  80.2699822  32.4158278
  37.0131482  96.9017962  27.0532473  37.2528080  97.5336487  27.7311491
  36.1700679  96.5506002  27.3397832  38.1285197  79.5942564  15.7214278
  37.2514664  79.4731365  15.3576524  38.6042951  78.8028643  15.4693166
  47.9958191  88.0495632  32.4912733  47.1084969  87.7121554  32.6139132
  48.5656742  87.3178664  32.7281499  29.6487338  84.3819724  25.8155785
  30.3358377  84.0681454  25.2276800  29.4935466  85.2861089  25.5423036
  34.4522060  79.2709921  30.2440809  34.3680248  78.6635590  29.5091218
  33.6304766  79.7618939  30.2450305  41.5259344  92.7097085  29.4573977
  41.4529515  93.5152056  29.9693281  41.0836737  92.9089051  28.6321998
  41.3149124  91.9468855  22.9676798  40.5316645  92.4890535  23.0615023
  42.0141869  92.4642834  23.3671039  44.6245774  77.7563484  25.6111004
  45.1214473  77.0033447  25.2912074  43.8532755  77.7927801  25.0454213
  52.4775531  83.4603850  27.2529295  52.4665407  84.3428565  26.8823228
  51.6092910  83.1075401  27.0583832  43.9858027  92.6083919  31.6132135
  44.6986000  93.2431384  31.5408037  43.4948056  92.7047785  30.7972137
  45.7075554  86.5135172  23.1849427  44.7731833  86.6336634  23.0154131
  45.8852223  85.6107638  22.9209437  41.2080742  79.8980867  25.3382688
  40.8378530  79.3451908  26.0263594  41.7039835  79.2939001  24.7857688
  49.0948106  82.3552491  23.7199461  49.5608558  83.1880482  23.6459764
  49.5455606  81.8897472  24.4244720  39.0369941  90.3578362  32.4337706
  39.7379400  90.9914845  32.5867100  38.5665056  90.6993094  31.6733345
  47.1624337  88.6996312  20.7185613  47.4384181  88.5852907  21.6279487
  46.2928836  88.3013797  20.6797786  47.0664768  74.7233078  27.7590362
  46.1527848  74.9537305  27.9272569  47.4957870  74.8071522  28.6104395
  46.8371227  82.9122970  30.2590256  46.1842677  83.1598877  29.6042709
  47.2151607  82.0987108  29.9252734  43.7978401  92.9482663  24.3618427
  43.9800795  92.1304319  24.8246179  44.6211387  93.1650355  23.9243317
  44.1320566  91.8750848  21.6233475  44.6608333  91.3643303  21.0103637
  44.3948786  91.5593378  22.4879008  42.8858800  83.6542781  36.7456294
  42.2099437  83.5536910  37.4158669  43.7086434  83.4981995  37.2092291
  34.6337659  89.8914717  29.3668809  35.2191096  89.1458405  29.4996713
  34.4362497  90.2018674  30.2505473  37.4876314  92.9265965  24.3831251
  36.8186689  93.4112092  23.8995291  37.3489184  93.1735185  25.2974630
  29.2255314  82.4620318  28.0873252  29.2639413  81.9283908  28.8810370
  28.7195607  81.9355523  27.4684229  41.6281583  94.9609708  30.9813910
  42.1799891  95.1241330  31.7462995  41.9687776  95.5514146  30.3093934
  36.6046076  77.3084858  31.5835794  36.6687403  78.1699689  31.1713192
  36.5413196  76.6958860  30.8508153  36.0798349  79.3807991  35.2308829
  36.7070387  78.9985068  35.8446353  35.2226267  79.1622193  35.5964521
  46.4792457  89.7870966  36.8362564  47.0232361  90.4000924  36.3417519
  45.8979302  90.3450544  37.3529577  32.8563891  81.1884420  21.1627183
  33.1517332  80.2795098  21.1094237  31.9551927  81.1672159  20.8408186
  44.7649970  92.9091684  27.9677592  44.6401110  92.1081424  27.4588537
  45.4229061  93.4037877  27.4791562  36.3858138  79.2640416  27.1454732
  35.6644724  79.8776384  27.0062205  37.1751394  79.7998181  27.0671378
  46.8284878  90.7100704  29.5957142  45.8815214  90.5906055  29.5235469
  47.1767652  89.8223202  29.6783403  39.1884452  76.5994843  33.4195384
  39.7118854  76.8457139  34.1821693  38.9696785  77.4314878  32.9998521
  34.5851733  78.8698517  21.2866508  34.2564439  77.9895896  21.1041614
  34.9391104  78.8146186  22.1742898  43.8331312  90.5053420  25.7961494
  43.6856274  89.5770128  25.9769064  44.6584805  90.5273511  25.3118569
  37.6993556  79.1571487  21.6541986  38.0389629  79.6857408  20.9320595
  38.1465677  79.4951893  22.4300553  47.4365434  91.3281979  26.8826367
  48.3611981  91.1224840  26.7450818  47.2680737  91.0798380  27.7915708
  40.3936997  77.5408538  31.1045054  40.0533817  76.7416351  31.5065734
  39.6876003  77.8410249  30.5321887  41.0453469  74.6257850  29.5572377
  41.8679538  74.1518329  29.4351268  41.2891532  75.4048334  30.0571064
  39.6861703  77.6546109  19.8535279  40.4070066  78.0327362  19.3498996
  39.0627007  78.3734986  19.9570257  43.8292826  78.3591258  20.7893611
  44.0456440  79.2415896  20.4882439  43.3486893  77.9677471  20.0599253
  38.5692047  81.3176971  27.3664356  38.4236628  81.6317274  28.2588637
  38.0917251  81.9361871  26.8135254  40.4288430  78.3079519  27.4145245
  40.4149999  77.4120612  27.0777543  41.1460858  78.3150183  28.0483531
  42.2814561  78.7416859  29.4598373  42.0232339  79.6633930  29.4582703
  41.7499601  78.3447294  30.1498837  47.2260750  91.8467646  22.2388458
  47.3997627  91.2814069  21.4862311  47.7189641  92.6468541  22.0567948
  33.0437710  83.8582315  30.3052017  32.4991178  84.6342123  30.4372291
  33.9217060  84.2053120  30.1471138  39.8325326  77.1893899  22.6832816
  39.9541237  76.2610545  22.8823703  39.5427369  77.2032585  21.7711131
  42.7016517  74.8748810  25.8199535  42.7238213  74.9388143  24.8651515
  43.1184576  74.0353318  26.0140042  53.0800141  84.6104069  23.8578758
  53.5231287  83.8611394  23.4597881  52.2026651  84.6014206  23.4752490
  48.2135922  91.1634411  19.3385357  48.9086827  91.7841103  19.5572671
  48.5559072  90.3129762  19.6137734  33.8303732  82.9852212  33.1982174
  33.0885468  83.1334847  33.7846804  33.5096476  83.2460477  32.3348923
  50.1127345  88.6134116  20.8672687  50.6378670  88.9521389  20.1422007
  50.0249698  87.6781132  20.6835822  41.7747394  92.5268190  32.9962564
  42.0834521  92.2817337  33.8685263  42.5722876  92.7314828  32.5081434
  41.7968006  94.6806099  25.2267940  41.3572996  94.1882478  25.9200797
  42.5476123  94.1379067  24.9860016  34.2760345  90.8717640  25.2292569
  35.1018365  90.5721412  24.8491212  33.9254397  90.1025263  25.6782357
  39.2441878  90.2244109  27.2990242  38.6221888  89.5614814  26.9992470
  39.9146745  90.2505240  26.6163890  32.4768950  88.7903967  26.1881502
  31.6400859  88.3626141  26.0065503  32.4492596  88.9836410  27.1252293
  39.3166406  78.7025897  36.8922748  39.3654561  79.5788019  36.5100518
  39.8588920  78.1603290  36.3194391  49.8021252  89.2467020  36.1723885
  49.0116795  89.2291159  35.6328385  49.5654606  89.7855314  36.9272922
  49.9219127  86.0959486  33.4856614  49.9717131  85.9309494  34.4272137
  49.8133050  85.2286745  33.0954495  38.8055385  88.7748032  20.7748703
  38.9543506  89.4583496  20.1215375  39.6121829  88.7553122  21.2898158
  47.2122889  82.0790414  34.8015920  48.1132752  81.9396879  34.5099918
  47.2870863  82.2444869  35.7414098  41.5465694  79.4557269  33.6469107
  40.6769004  79.7490835  33.3751695  41.7825175  80.0397714  34.3676370
  51.4237323  88.5156428  33.7298635  51.1322132  88.8786408  34.5662096
  50.8109455  87.8023436  33.5511967  52.6233006  86.0809308  26.2501206
  53.4579897  86.5199112  26.4138766  52.7592134  85.6047961  25.4309451
  49.6724512  83.6389042  32.1978693  50.1478633  83.8316689  31.3897545
  48.7490077  83.6948228  31.9522077  36.5608018  84.8013210  21.7809772
  36.3154060  83.8975540  21.9789982  36.7303933  84.8030360  20.8389250
  44.2504728  75.6736886  31.1634527  44.7686672  76.4097913  30.8381016
  43.8959861  75.9800879  31.9981286  35.8303666  80.5341567  19.2795933
  35.1372911  80.6085922  18.6235969  35.5855418  79.7701911  19.8017450
  44.5017322  72.0937168  26.6835424  44.7819076  71.4260358  27.3095850
  45.2867929  72.2866264  26.1710088  42.3050791  91.2696162  18.2460450
  41.7324758  91.8886349  17.7930922  42.8783584  91.8195524  18.7800372
  48.3726181  80.5154802  30.4306999  49.3243604  80.6152900  30.4519223
  48.2029631  79.7233071  30.9405083  46.3940560  77.6010386  30.6166400
  45.7990492  77.8815398  29.9212888  46.1090257  78.0904287  31.3883141
  45.5248051  91.5533312  19.3769032  46.4578724  91.4878874  19.5801908
  45.4371263  92.3889579  18.9183565  48.1536067  90.8699183  16.3372980
  48.0749699  90.5359046  17.2308738  48.9745734  91.3620951  16.3364452
  50.8514258  83.7360922  29.5449299  50.8190579  82.7976923  29.7308982
  51.4614882  83.8144959  28.8115123  42.6897589  82.6056975  15.5876503
  43.6356694  82.4763183  15.6564921  42.3111834  81.8671637  16.0645931
  51.0008747  80.5271966  29.5907582  50.4847796  79.7430422  29.4037511
  51.8848695  80.1990682  29.7554101  48.6619474  74.2712981  25.5503394
  48.4644295  73.9628069  26.4346726  49.2719179  74.9974620  25.6801324
  56.6690808  84.7976929  28.6855335  57.3994197  84.5362217  29.2463039
  56.0597754  84.0605651  28.7257403  54.7506105  82.9384792  29.2829787
  54.0239269  82.8040757  28.6746278  54.3353392  83.2461620  30.0886505
  42.5736282  86.6574721  37.0477160  43.4939291  86.8353320  37.2417206
  42.5385865  85.7130767  36.8956859  40.8740506  80.5306952  15.5231388
  39.9671962  80.2340064  15.5994101  41.1516487  80.2336770  14.6565674
  31.7918447  81.8513315  25.9730434  31.4721231  80.9978623  25.6804808
  31.2451875  82.0661893  26.7288402  35.5698354  84.5675756  29.6899941
  35.7884364  85.4992864  29.7087975  35.9824128  84.2083730  30.4754745
  42.4902572  75.0743841  21.6775629  41.6803300  74.7290926  22.0530875
  43.1786989  74.7651385  22.2663241  44.4193120  74.1521888  23.2999926
  44.9724159  74.5717341  23.9589949  44.6563207  73.2257636  23.3422882
  40.4426220  80.1408962  39.0802690  40.3422947  81.0903319  39.0114781
  40.2247762  79.8127201  38.2078760  39.6439291  77.3893887  15.6643367
  40.5058455  77.7148785  15.9239184  39.8289635  76.6025383  15.1516433
  31.6606707  85.4716226  27.9423556  30.9670178  85.0570179  27.4293510
  32.4079698  85.5136763  27.3456975  47.7971928  76.2622413  22.8078590
  47.2170597  76.9207217  22.4256642  47.5307860  75.4399758  22.3966008
  46.2475494  75.6627471  25.0099910  46.7475272  75.7744005  24.2014229
  46.8911102  75.3588524  25.6500719  40.3057490  83.5706101  37.8967751
  39.8224571  84.3706461  38.1031640  40.3918429  83.5814045  36.9435195
  33.5743449  85.4034480  25.8189571  33.5514137  85.5022167  24.8671454
  33.8844086  86.2499631  26.1406737  36.2330827  87.4610635  29.9336185
  37.1874081  87.4294578  29.8666117  36.0343351  87.0001259  30.7486411
  36.8230209  86.0311751  32.5006983  37.6423098  86.5255830  32.5241820
  37.0967017  85.1143719  32.4724550  46.5796806  78.4222504  21.8634938
  45.6922661  78.7072154  21.6455133  46.9950795  78.2616267  21.0162215
  49.9311342  78.4469025  25.5789278  50.7071732  78.9365477  25.8513894
  49.2059476  78.8727079  26.0361147  52.3683900  79.1596644  26.6363218
  52.9628391  78.9192380  25.9256526  52.4410484  78.4403774  27.2636754
  34.5881056  93.0030255  26.9506383  34.4535524  92.2430656  26.3844381
  34.1713118  93.7271155  26.4835172  45.7240019  88.1867178  15.9582958
  46.4275869  88.3917181  16.5740614  45.0002668  88.7543940  16.2232042
  46.5537829  83.9377040  22.0785228  46.4973031  84.3945591  21.2392861
  47.1066172  83.1767724  21.9008071  50.3642635  79.7266771  22.9035348
  50.1079569  79.3263407  23.7343556  49.7395503  80.4410565  22.7785487
  54.6754973  82.4662845  25.4106639  54.1154531  82.5356034  26.1838201
  54.0698476  82.2903829  24.6906136  37.7450182  93.8999572  27.1624826
  37.6282566  94.8445004  27.0603516  36.9242628  93.5973133  27.5510625
  47.6326716  88.6249707  18.0081418  48.4672320  88.1930906  17.8258893
  47.4711059  88.4531721  18.9358313  47.2872609  85.1281821  19.3737758
  47.2321412  84.9626092  18.4326202  46.6618664  85.8357854  19.5299947
  32.0765124  80.3649885  33.1999180  32.7223987  79.8548839  33.6886405
  31.8682275  81.1018567  33.7742605  44.6018516  87.4330733  38.6991320
  45.4709675  87.6071385  38.3377955  44.1225267  88.2525149  38.5767050
  40.5968734  74.6289930  18.9523076  40.5847404  75.5731770  19.1091347
  41.4892156  74.4460075  18.6582537  38.7704696  94.5527834  30.3780754
  39.6731943  94.5851444  30.6947249  38.5442066  93.6228285  30.3927090
  40.5258298  93.3058820  27.0390833  39.5753929  93.3060682  26.9255205
  40.8290784  92.5591555  26.5226867  44.4120854  71.2232706  23.2069013
  43.6453249  70.6691193  23.3525695  44.8231558  71.2954575  24.0683164
  36.4162615  77.5117502  37.2974194  37.2794076  77.1554307  37.5077519
  35.8428025  77.1731397  37.9849598  56.2610992  99.1419359  28.1036595
  56.8989401  99.0226106  27.3999935  56.1431834 100.0900203  28.1624547
  53.0700698  99.0946787  28.0398120  52.7319209  98.9787851  27.1518655
  53.9390466  98.6937952  28.0199126  48.9287513 100.9482263  24.0295011
  48.3652379 100.8572200  23.2611298  48.8139909 100.1282168  24.5097503
  53.5520481 100.2481638  33.9984325  53.5409122  99.8534437  33.1264829
  53.7141120  99.5147711  34.5918097  46.4751945 102.4433455  26.8679231
  47.2673237 102.1024279  26.4525530  46.7148596 102.5528430  27.7881384
  54.5087072 104.6153231  19.3409476  53.8575052 105.2007311  18.9543489
  55.3031435 105.1459426  19.4004513  48.4342699 101.7042368  19.7396610
  49.2073575 101.1571355  19.6009486  48.7868098 102.5686617  19.9511071
  50.2727742 103.0318750  32.9463509  49.9817608 103.9364381  32.8310176
  50.9084726 103.0735278  33.6607579  51.1983949 100.4095599  29.5364869
  51.7947521 100.1851621  28.8221832  51.2558920  99.6680344  30.1390317
  50.7708977  97.8635034  17.3715060  51.0234498  97.3416555  16.6098523
  49.8333536  97.7001179  17.4741743  55.8152260  96.8670812  25.1789803
  56.6015349  96.4490236  24.8280220  56.0790964  97.7716905  25.3471451
  55.9862337 102.3043663  19.8778460  55.3508170 102.3778289  20.5899365
  55.6559744 102.8937262  19.1997539  61.2160687  96.8046046  26.0822782
  61.9485859  96.2345262  26.3160611  60.4600043  96.4167646  26.5229287
  50.4905266  99.7663140  19.5739435  50.3741524  99.0908043  20.2420519
  50.6007526  99.2795514  18.7571588  52.8336807  99.2273287  23.2786124
  52.4695014  98.7003908  23.9899046  53.6903923  98.8371756  23.1052609
  58.7386107  90.5167620  30.5417390  58.4069432  91.3863031  30.3178605
  58.1431721  90.2003904  31.2211421  52.4742294  94.2563187  18.2747473
  52.6416696  95.1243423  18.6417944  52.2839463  94.4190468  17.3508762
  55.2317627 102.7180166  29.9413303  54.9318350 103.6205205  29.8329110
  54.8868687 102.4512349  30.7934456  48.6830108  99.1693963  25.9750007
  47.7580605  99.0370177  26.1827699  48.9314522  99.9488182  26.4719950
  58.6314771  95.2362706  27.6210740  57.7231648  95.1678114  27.3269501
  58.5802367  95.7134651  28.4492566  52.4531515  96.7120844  19.2594139
  52.3331140  97.1577895  20.0979620  51.7584103  97.0606162  18.7007678
  46.0438920  98.8127236  26.8093796  46.1731301  99.0661715  27.7233208
  45.3636371  99.4054944  26.4898452  52.7055637  96.6552351  35.5645638
  51.9288971  97.2146272  35.5548502  53.3446200  97.1409134  36.0860508
  60.4976417  93.4379144  29.3988614  59.8550797  93.7311677  28.7528409
  59.9931346  93.3232065  30.2041811  58.1516581  97.1842317  20.0874473
  59.0634437  97.4169704  19.9122171  57.6426228  97.7679362  19.5249552
  50.9602009  99.4637805  35.1263605  51.7016693 100.0022849  34.8498428
  50.2538994 100.0904094  35.2835156  56.4357349 101.6066945  33.7235766
  56.8440705 101.1649356  32.9790398  55.7134610 101.0319573  33.9769959
  52.7888419  96.5439552  31.0969323  53.6349614  96.9678966  31.2403972
  52.7287056  95.8873176  31.7907886  56.7586163 102.1668136  27.4788055
  56.1295026 102.3313850  26.7764123  56.3711825 102.5809745  28.2499019
  60.6375395 103.1022574  24.8332419  59.9526433 103.4821475  24.2829452
  60.7219244 103.7117900  25.5664366  55.9387864  94.2043920  32.7550497
  55.6948796  94.9585981  32.2184772  56.2147794  94.5829268  33.5897744
  57.8926327 100.7482533  31.4327762  58.1043222 101.3914293  30.7562143
  57.8456075  99.9144849  30.9649692  55.4952556  93.3600353  28.3364334
  54.6337035  93.6581607  28.6281072  55.5214990  93.5770752  27.4045367
  52.3114125 101.9042544  24.7438140  52.7752471 102.1830247  23.9542763
  52.0470923 101.0025989  24.5611231  49.2038206 101.4514026  27.6817903
  49.7739563 101.8801294  27.0435388  49.7946318 101.1696610  28.3802089
  51.2483011  98.0265696  21.5527705  51.9507054  98.4786740  22.0201632
  50.9163640  97.3849515  22.1807598  49.6963373  96.6177453  35.9278915
  49.0662033  97.2993734  36.1614311  49.5899461  96.5060535  34.9832053
  44.9908345  96.2849249  26.8544839  44.2007399  96.5406778  26.3784949
  45.4819592  97.0997587  26.9596879  59.0072155 103.6254488  29.6050120
  59.8289598 103.2234675  29.3232801  59.0034557 103.5222722  30.5566235
  46.9423090  96.6493828  23.8128315  46.1454254  96.7612523  24.3311811
  46.7148683  96.9880481  22.9469206  52.7728758 103.1738532  31.7610830
  52.8373191 103.6358939  32.5969002  52.0639682 102.5435896  31.8893140
  43.2746048  96.5379739  29.2859830  43.5254086  97.4226749  29.5517405
  43.8105596  96.3584341  28.5134921  67.0978148  99.9693237  25.9535091
  66.3441856  99.4000635  25.7979095  67.2325689  99.9355901  26.9005726
  52.4876776 104.8406639  21.6289810  52.3522451 105.6858175  22.0574658
  53.0286588 105.0425917  20.8655744  48.9744115  90.9198219  38.2904166
  48.5811061  90.3664417  38.9651810  49.7910256  91.2308797  38.6810683
  45.9406173 102.3582077  22.2017735  46.4530694 103.1525327  22.3523300
  46.5928886 101.6608367  22.1351337  47.7501058 105.4747833  24.2840489
  47.9267686 106.3965798  24.0961473  48.5457891 105.1606253  24.7134868
  51.8912076  92.3356098  35.8824422  52.6321790  92.9363251  35.8028885
  52.1229999  91.5933736  35.3242465  47.0353414  97.5212465  34.1602652
  46.9206929  96.6197722  34.4609751  46.1797932  97.7676162  33.8087468
  54.1145252 105.4630206  35.7590152  53.6709106 104.6766584  35.4411057
  54.7762466 105.6509356  35.0934043  48.8732373 106.9926007  30.2850831
  49.4239798 106.8643070  29.5127825  48.0343849 107.2920896  29.9345724
  56.2126490 105.7433005  33.7871554  56.1944966 106.5641886  33.2951823
  57.1346410 105.6187081  34.0121695  52.6699544 103.2577135  34.6295062
  53.2027881 102.4965423  34.3994370  52.1413625 102.9650787  35.3719217
  55.8369239  88.3637201  30.1588704  55.4933509  89.2538843  30.0827814
  56.2048202  88.1738859  29.2958289  43.9055090 100.6870731  22.9777306
  44.7430312 101.0967740  22.7611014  44.0833358  99.7470174  22.9477500
  55.8019522  98.3545812  18.6661139  55.2866145  99.1250417  18.9049526
  55.5296830  97.6810948  19.2894200  53.3866633  93.1995513  23.7246377
  52.5308229  92.8102363  23.5452016  53.7993585  93.2787474  22.8646163
  54.9165780  90.7341856  28.1237937  54.4130575  90.6971991  27.3105742
  55.2096387  91.6434599  28.1834594  51.1608666  90.8180586  27.1304119
  52.0261662  90.6223394  26.7710008  51.2286174  90.5890938  28.0573476
  60.7753796 101.1078167  20.6014312  59.9983239 100.7689326  20.1569475
  61.4545277 101.1130790  19.9269277  55.5905825  96.2272904  20.4920920
  55.2855961  96.5419053  21.3431063  56.5436267  96.3054324  20.5348253
  54.0352257 102.3863127  22.1413874  53.5073619 101.6515887  21.8287112
  53.5339760 103.1637804  21.8953842  59.0145103 100.5812148  27.2580920
  58.3568777 101.2711409  27.3461049  59.8185502 100.9708580  27.6014907
  48.7670985  93.0482794  24.5020486  49.3414737  92.8257975  23.7693679
  49.3541967  93.1171488  25.2549087  57.8250562  98.9356521  25.3084862
  58.3382444  99.5686512  25.8106572  58.4751786  98.3357716  24.9428222
  49.0940572  95.0787255  18.5216371  48.2577884  95.4161941  18.8425646
  48.9545341  94.9436235  17.5843508  51.0693652  89.9224043  23.2295555
  50.4158065  89.6073060  22.6052170  51.0274126  89.2999783  23.9555378
  54.3031393  96.4105976  27.5543203  53.3853954  96.6320923  27.3964891
  54.7191536  96.4852287  26.6954910  55.0866440  97.8097392  22.6845883
  55.8338259  98.3218789  22.3753005  55.3558030  97.4881445  23.5450277
  53.3593091 100.3055933  19.6672837  52.4504310 100.0214965  19.7645307
  53.3888174 100.7255011  18.8076144  58.5912358 103.9162522  23.4364005
  58.1374685 103.0753432  23.4929195  57.9606325 104.5523920  23.7738785
  57.5345278  94.8454508  24.6664672  56.7968034  94.3331894  24.9974915
  57.7872051  94.4054890  23.8547949  57.0345297 105.7539019  24.3713823
  57.3268272 106.3144076  23.6526189  57.5443918 106.0467580  25.1266982
  57.6356905  87.6230760  25.2606442  57.9415782  86.7628123  24.9732357
  58.3609510  88.2148380  25.0605435  43.9281261  98.0261447  23.6488039
  43.7305661  97.4330807  22.9239106  43.3727925  97.7213657  24.3663978
  51.9077985  97.9184553  25.7682633  51.9626594  96.9658390  25.6925109
  51.0969187  98.0743992  26.2523931  49.8470345  96.5361613  23.5273011
  49.0338210  96.8355783  23.9338204  50.3429339  96.1417302  24.2447494
  51.9978922 106.5319370  25.4607276  51.9555101 106.7580216  24.5315808
  52.9141621 106.2982744  25.6093077  55.4444556  97.0003437  32.3587905
  55.7993944  97.2274910  33.2182371  56.0916688  97.3321814  31.7365161
  61.1742293 100.1221873  23.0637234  61.0360192 100.3123469  22.1358424
  60.8178512 100.8841256  23.5205286  49.3384419  94.1079968  29.1434246
  49.9783799  93.9668728  28.4457210  48.5061950  93.8214482  28.7672848
  61.2011673 102.1898400  28.0748506  61.6348180 102.0973689  28.9231560
  61.9143254 102.1655901  27.4368522  50.1144723 103.4082399  25.2569239
  50.9085322 102.9132719  25.0551814  49.4036416 102.8800262  24.8936944
  54.9339568 105.7900494  29.6081606  54.9876590 106.3591431  30.3759322
  54.0654349 105.9602379  29.2435644  46.4227487  97.5525481  21.3328992
  45.4925075  97.4909936  21.5498954  46.5184959  97.0301433  20.5365633
  46.3413036  94.0780293  23.9207233  46.6019853  94.9925627  23.8116394
  47.1630208  93.6104736  24.0703846  47.8137961  95.4918051  31.0906058
  48.4861015  95.2835413  30.4418707  46.9867748  95.2940137  30.6511290
  62.0627222 102.2322101  30.6081391  62.2563112 103.1367911  30.8540666
  61.9627841 101.7729520  31.4419976  53.7163533  92.1179991  33.1071719
  53.0691448  92.8169941  33.0136195  54.4864549  92.5516135  33.4747967
  57.1242331 102.3828844  36.1822272  56.9727837 102.1539395  35.2652356
  57.1147011 103.3399445  36.1953617  53.8927667  99.9560756  31.1668538
  54.8219727 100.1071916  30.9937506  53.4718697 100.0444777  30.3117185
  52.6915999 103.9811421  28.9367076  52.5527085 103.6130205  29.8093014
  51.9030595 104.4959060  28.7651034  54.2421214 103.3593024  26.3255914
  53.9071047 103.3193793  27.2213564  53.7425160 102.6937739  25.8526324
  50.8447759  98.4780613  31.3392175  51.5547378  97.8373805  31.2978793
  50.8017067  98.7293508  32.2618355  58.8334538 105.4147966  34.2598754
  58.7747084 104.7307186  33.5929337  59.2354056 106.1566956  33.8079380
  49.5576693  95.4645831  33.1587814  49.0214050  95.0136569  33.8109410
  48.9693401  95.5991740  32.4158278  48.9678952  94.9234482  15.7214278
  48.0908418  94.8023283  15.3576524  49.4436705  94.1320560  15.4693166
  58.8351945 103.3787550  32.4912733  57.9478724 103.0413472  32.6139132
  59.4050496 102.6470581  32.7281499  40.4881092  99.7111642  25.8155785
  41.1752132  99.3973372  25.2276800  40.3329221 100.6153007  25.5423036
  45.2915814  94.6001838  30.2440809  45.2074003  93.9927508  29.5091218
  44.4698521  95.0910857  30.2450305  52.3653098 108.0389002  29.4573977
  52.2923270 108.8443974  29.9693281  51.9230491 108.2380968  28.6321998
  52.1542878 107.2760773  22.9676798  51.3710400 107.8182453  23.0615023
  52.8535623 107.7934752  23.3671039  55.4639528  93.0855402  25.6111004
  55.9608228  92.3325364  25.2912074  54.6926510  93.1219719  25.0454213
  63.3169286  98.7895768  27.2529295  63.3059162  99.6720483  26.8823228
  62.4486665  98.4367318  27.0583832  54.8251782 107.9375837  31.6132135
  55.5379754 108.5723301  31.5408037  54.3341811 108.0339703  30.7972137
  56.5469309 101.8427089  23.1849427  55.6125588 101.9628552  23.0154131
  56.7245977 100.9399556  22.9209437  52.0474497  95.2272785  25.3382688
  51.6772284  94.6743825  26.0263594  52.5433589  94.6230918  24.7857688
  59.9341860  97.6844408  23.7199461  60.4002312  98.5172400  23.6459764
  60.3849361  97.2189390  24.4244720  49.8763695 105.6870280  32.4337706
  50.5773155 106.3206763  32.5867100  49.4058810 106.0285012  31.6733345
  58.0018091 104.0288230  20.7185613  58.2777935 103.9144824  21.6279487
  57.1322590 103.6305715  20.6797786  57.9058523  90.0524995  27.7590362
  56.9921603  90.2829222  27.9272569  58.3351624  90.1363440  28.6104395
  57.6764981  98.2414887  30.2590256  57.0236432  98.4890795  29.6042709
  58.0545361  97.4279026  29.9252734  54.6372155 108.2774581  24.3618427
  54.8194550 107.4596237  24.8246179  55.4605141 108.4942273  23.9243317
  54.9714321 107.2042766  21.6233475  55.5002087 106.6935220  21.0103637
  55.2342540 106.8885296  22.4879008  53.7252554  98.9834698  36.7456294
  53.0493191  98.8828828  37.4158669  54.5480188  98.8273912  37.2092291
  45.4731413 105.2206635  29.3668809  46.0584850 104.4750323  29.4996713
  45.2756252 105.5310592  30.2505473  40.0649068  97.7912235  28.0873252
  40.1033168  97.2575826  28.8810370  39.5589361  97.2647441  27.4684229
  47.4439831  92.6376776  31.5835794  47.5081157  93.4991607  31.1713192
  47.3806951  92.0250777  30.8508153  46.9192103  94.7099908  35.2308829
  47.5464142  94.3276986  35.8446353  46.0620022  94.4914110  35.5964521
  57.3186212 105.1162883  36.8362564  57.8626116 105.7292842  36.3417519
  56.7373056 105.6742462  37.3529577  43.6957646  96.5176337  21.1627183
  43.9911087  95.6087016  21.1094237  42.7945682  96.4964077  20.8408186
  55.6043725 108.2383601  27.9677592  55.4794864 107.4373341  27.4588537
  56.2622816 108.7329795  27.4791562  47.2251893  94.5932334  27.1454732
  46.5038479  95.2068302  27.0062205  48.0145149  95.1290099  27.0671378
  57.6678633 106.0392622  29.5957142  56.7208969 105.9197973  29.5235469
  58.0161406 105.1515120  29.6783403  50.0278206  91.9286760  33.4195384
  50.5512608  92.1749057  34.1821693  49.8090540  92.7606795  32.9998521
  45.4245487  94.1990435  21.2866508  45.0958194  93.3187814  21.1041614
  45.7784858  94.1438104  22.1742898  54.6725066 105.8345338  25.7961494
  54.5250029 104.9062045  25.9769064  55.4978560 105.8565428  25.3118569
  48.5387311  94.4863405  21.6541986  48.8783383  95.0149326  20.9320595
  48.9859431  94.8243811  22.4300553  58.2759188 106.6573896  26.8826367
  59.2005736 106.4516758  26.7450818  58.1074491 106.4090298  27.7915708
  51.2330751  92.8700456  31.1045054  50.8927572  92.0708269  31.5065734
  50.5269758  93.1702166  30.5321887  51.8847223  89.9549768  29.5572377
  52.7073293  89.4810246  29.4351268  52.1285287  90.7340252  30.0571064
  50.5255458  92.9838026  19.8535279  51.2463820  93.3619279  19.3498996
  49.9020762  93.7026903  19.9570257  54.6686581  93.6883175  20.7893611
  54.8850195  94.5707813  20.4882439  54.1880648  93.2969389  20.0599253
  49.4085802  96.6468889  27.3664356  49.2630383  96.9609192  28.2588637
  48.9311006  97.2653789  26.8135254  51.2682185  93.6371437  27.4145245
  51.2543754  92.7412530  27.0777543  51.9854613  93.6442100  28.0483531
  53.1208316  94.0708777  29.4598373  52.8626093  94.9925847  29.4582703
  52.5893356  93.6739211  30.1498837  43.8831464  99.1874233  30.3052017
  43.3384932  99.9634041  30.4372291  44.7610814  99.5345038  30.1471138
  50.6719081  92.5185817  22.6832816  50.7934992  91.5902463  22.8823703
  50.3821123  92.5324503  21.7711131  53.5410271  90.2040727  25.8199535
  53.5631968  90.2680060  24.8651515  53.9578330  89.3645236  26.0140042
  63.9193895  99.9395987  23.8578758  64.3625042  99.1903312  23.4597881
  63.0420406  99.9306123  23.4752490  44.6697486  98.3144129  33.1982174
  43.9279222  98.4626765  33.7846804  44.3490230  98.5752395  32.3348923
  52.6141149 107.8560108  32.9962564  52.9228275 107.6109254  33.8685263
  53.4116631 108.0606746  32.5081434  45.1154100 106.2009558  25.2292569
  45.9412120 105.9013330  24.8491212  44.7648152 105.4317180  25.6782357
  50.0835633 105.5536026  27.2990242  49.4615642 104.8906731  26.9992470
  50.7540500 105.5797158  26.6163890  43.3162705 104.1195884  26.1881502
  42.4794613 103.6918059  26.0065503  43.2886350 104.3128328  27.1252293
  50.1560160  94.0317814  36.8922748  50.2048316  94.9079937  36.5100518
  50.6982675  93.4895207  36.3194391  60.6415006 104.5758938  36.1723885
  59.8510550 104.5583076  35.6328385  60.4048361 105.1147231  36.9272922
  60.7612881 101.4251404  33.4856614  60.8110886 101.2601411  34.4272137
  60.6526804 100.5578663  33.0954495  49.6449140 104.1039950  20.7748703
  49.7937260 104.7875414  20.1215375  50.4515583 104.0845040  21.2898158
  58.0516643  97.4082332  34.8015920  58.9526506  97.2688797  34.5099918
  58.1264618  97.5736787  35.7414098  52.3859449  94.7849187  33.6469107
  51.5162758  95.0782753  33.3751695  52.6218929  95.3689632  34.3676370
  62.2631078 103.8448345  33.7298635  61.9715886 104.2078326  34.5662096
  61.6503209 103.1315354  33.5511967  63.4626760 101.4101225  26.2501206
  64.2973652 101.8491029  26.4138766  63.5985889 100.9339878  25.4309451
  60.5118266  98.9680960  32.1978693  60.9872388  99.1608606  31.3897545
  59.5883831  99.0240146  31.9522077  47.4001773 100.1305127  21.7809772
  47.1547815  99.2267457  21.9789982  47.5697687 100.1322278  20.8389250
  55.0898483  91.0028804  31.1634527  55.6080426  91.7389831  30.8381016
  54.7353615  91.3092797  31.9981286  46.6697420  95.8633485  19.2795933
  45.9766665  95.9377840  18.6235969  46.4249172  95.0993828  19.8017450
  55.3411077  87.4229086  26.6835424  55.6212831  86.7552275  27.3095850
  56.1261684  87.6158182  26.1710088  59.2119935  95.8446720  30.4306999
  60.1637358  95.9444818  30.4519223  59.0423386  95.0524989  30.9405083
  57.2334315  92.9302303  30.6166400  56.6384247  93.2107316  29.9212888
  56.9484011  93.4196204  31.3883141  61.6908013  99.0652840  29.5449299
  61.6584333  98.1268841  29.7308982  62.3008637  99.1436877  28.8115123
  53.5291344  97.9348893  15.5876503  54.4750448  97.8055101  15.6564921
  53.1505589  97.1963555  16.0645931  61.8402501  95.8563883  29.5907582
  61.3241550  95.0722340  29.4037511  62.7242450  95.5282600  29.7554101
  59.5013228  89.6004899  25.5503394  59.3038049  89.2919987  26.4346726
  60.1112934  90.3266538  25.6801324  67.5084563 100.1268847  28.6855335
  68.2387951  99.8654135  29.2463039  66.8991508  99.3897569  28.7257403
  65.5899860  98.2676709  29.2829787  64.8633023  98.1332674  28.6746278
  65.1747147  98.5753538  30.0886505  53.4130036 101.9866639  37.0477160
  54.3333046 102.1645238  37.2417206  53.3779619 101.0422684  36.8956859
  51.7134261  95.8598869  15.5231388  50.8065716  95.5631982  15.5994101
  51.9910242  95.5628687  14.6565674  42.6312201  97.1805233  25.9730434
  42.3114986  96.3270541  25.6804808  42.0845629  97.3953811  26.7288402
  46.4092109  99.8967674  29.6899941  46.6278119 100.8284781  29.7087975
  46.8217883  99.5375648  30.4754745  53.3296327  90.4035759  21.6775629
  52.5197055  90.0582844  22.0530875  54.0180744  90.0943303  22.2663241
  55.2586875  89.4813806  23.2999926  55.8117914  89.9009259  23.9589949
  55.4956961  88.5549554  23.3422882  51.2819974  95.4700879  39.0802690
  51.1816701  96.4195236  39.0114781  51.0641516  95.1419118  38.2078760
  50.4833046  92.7185804  15.6643367  51.3452210  93.0440703  15.9239184
  50.6683390  91.9317300  15.1516433  42.5000461 100.8008144  27.9423556
  41.8063933 100.3862097  27.4293510  43.2473452 100.8428681  27.3456975
  58.6365682  91.5914331  22.8078590  58.0564351  92.2499135  22.4256642
  58.3701615  90.7691675  22.3966008  57.0869248  90.9919389  25.0099910
  57.5869027  91.1035923  24.2014229  57.7304856  90.6880441  25.6500719
  51.1451244  98.8998018  37.8967751  50.6618326  99.6998378  38.1031640
  51.2312183  98.9105963  36.9435195  44.4137204 100.7326398  25.8189571
  44.3907892 100.8314085  24.8671454  44.7237840 101.5791549  26.1406737
  47.0724582 102.7902553  29.9336185  48.0267835 102.7586495  29.8666117
  46.8737105 102.3293177  30.7486411  47.6623964 101.3603669  32.5006983
  48.4816853 101.8547748  32.5241820  47.9360772 100.4435637  32.4724550
  57.4190560  93.7514421  21.8634938  56.5316415  94.0364072  21.6455133
  57.8344549  93.5908185  21.0162215  60.7705096  93.7760942  25.5789278
  61.5465486  94.2657395  25.8513894  60.0453230  94.2018996  26.0361147
  63.2077655  94.4888561  26.6363218  63.8022146  94.2484297  25.9256526
  63.2804238  93.7695692  27.2636754  57.3931584  99.2668957  22.0785228
  57.3366785  99.7237509  21.2392861  57.9459926  98.5059642  21.9008071
  61.2036390  95.0558689  22.9035348  60.9473324  94.6555325  23.7343556
  60.5789258  95.7702483  22.7785487  65.5148728  97.7954762  25.4106639
  64.9548286  97.8647952  26.1838201  64.9092231  97.6195747  24.6906136
  58.1266363 100.4573738  19.3737758  58.0715167 100.2918010  18.4326202
  57.5012418 101.1649771  19.5299947  42.9158878  95.6941803  33.1999180
  43.5617742  95.1840757  33.6886405  42.7076029  96.4310484  33.7742605
  55.4412270 102.7622650  38.6991320  56.3103430 102.9363303  38.3377955
  54.9619022 103.5817067  38.5767050  51.4362489  89.9581847  18.9523076
  51.4241158  90.9023687  19.1091347  52.3285910  89.7751993  18.6582537
  55.2514608  86.5524624  23.2069013  54.4847004  85.9983111  23.3525695
  55.6625313  86.6246493  24.0683164  47.2556369  92.8409420  37.2974194
  48.1187831  92.4846225  37.5077519  46.6821780  92.5023315  37.9849598
  69.5779862 105.8459537  30.5417390  69.2463187 106.7154948  30.3178605
  68.9825475 105.5295821  31.2211421  63.5449391 111.9844269  35.5645638
  62.7682725 112.5438189  35.5548502  64.1839954 112.4701052  36.0860508
  71.3370172 108.7671062  29.3988614  70.6944552 109.0603595  28.7528409
  70.8325100 108.6523982  30.2041811  63.6282173 111.8731470  31.0969323
  64.4743368 112.2970883  31.2403972  63.5680811 111.2165094  31.7907886
  66.7781618 109.5335838  32.7550497  66.5342550 110.2877899  32.2184772
  67.0541549 109.9121186  33.5897744  66.3346310 108.6892271  28.3364334
  65.4730789 108.9873525  28.6281072  66.3608745 108.9062670  27.4045367
  59.8137870 106.2490137  38.2904166  59.4204815 105.6956335  38.9651810
  60.6304010 106.5600715  38.6810683  62.7305831 107.6648016  35.8824422
  63.4715544 108.2655169  35.8028885  62.9623754 106.9225653  35.3242465
  66.6762994 103.6929119  30.1588704  66.3327263 104.5830760  30.0827814
  67.0441956 103.5030776  29.2958289  65.7559534 106.0633774  28.1237937
  65.2524330 106.0263909  27.3105742  66.0490141 106.9726516  28.1834594
  62.0002420 106.1472503  27.1304119  62.8655417 105.9515312  26.7710008
  62.0679929 105.9182855  28.0573476  59.6064739 108.3774711  24.5020486
  60.1808491 108.1549893  23.7693679  60.1935722 108.4463406  25.2549087
  61.9087407 105.2515960  23.2295555  61.2551819 104.9364977  22.6052170
  61.8667881 104.6291701  23.9555378  68.4750659 102.9522678  25.2606442
  68.7809536 102.0920041  24.9732357  69.2003264 103.5440298  25.0605435
  66.2838311 112.3295355  32.3587905  66.6387699 112.5566828  33.2182371
  66.9310442 112.6613732  31.7365161  60.1778174 109.4371886  29.1434246
  60.8177553 109.2960645  28.4457210  59.3455704 109.1506399  28.7672848
  57.1806790 109.4072211  23.9207233  57.4413608 110.3217544  23.8116394
  58.0023963 108.9396654  24.0703846  58.6531716 110.8209968  31.0906058
  59.3254769 110.6127330  30.4418707  57.8261502 110.6232054  30.6511290
  64.5557288 107.4471909  33.1071719  63.9085203 108.1461859  33.0136195
  65.3258303 107.8808053  33.4747967  60.3970448 110.7937748  33.1587814
  59.8607805 110.3428487  33.8109410  59.8087156 110.9283657  32.4158278
  68.7452277 105.3816913  27.7590362  67.8315357 105.6121140  27.9272569
  69.1745379 105.4655357  28.6104395  68.5158736 113.5706805  30.2590256
  67.8630186 113.8182713  29.6042709  68.8939116 112.7570943  29.9252734
  58.2833585 107.9668693  31.5835794  58.3474912 108.8283524  31.1713192
  58.2200705 107.3542695  30.8508153  57.7585858 110.0391826  35.2308829
  58.3857896 109.6568903  35.8446353  56.9013776 109.8206028  35.5964521
  58.0645647 109.9224252  27.1454732  57.3432233 110.5360219  27.0062205
  58.8538903 110.4582016  27.0671378  60.8671961 107.2578678  33.4195384
  61.3906363 107.5040975  34.1821693  60.6484294 108.0898713  32.9998521
  62.0724506 108.1992373  31.1045054  61.7321326 107.4000186  31.5065734
  61.3663512 108.4994084  30.5321887  62.7240978 105.2841686  29.5572377
  63.5467047 104.8102164  29.4351268  62.9679041 106.0632169  30.0571064
  62.1075939 108.9663354  27.4145245  62.0937508 108.0704448  27.0777543
  62.8248367 108.9734018  28.0483531  63.9602070 109.4000695  29.4598373
  63.7019848 110.3217765  29.4582703  63.4287110 109.0031129  30.1498837
  64.3804026 105.5332645  25.8199535  64.4025722 105.5971978  24.8651515
  64.7972085 104.6937154  26.0140042  60.9953915 109.3609732  36.8922748
  61.0442070 110.2371855  36.5100518  61.5376429 108.8187125  36.3194391
  68.8910398 112.7374250  34.8015920  69.7920261 112.5980714  34.5099918
  68.9658372 112.9028704  35.7414098  63.2253203 110.1141104  33.6469107
  62.3556513 110.4074670  33.3751695  63.4612684 110.6981549  34.3676370
  65.9292237 106.3320721  31.1634527  66.4474181 107.0681748  30.8381016
  65.5747370 106.6384715  31.9981286  66.1804831 102.7521004  26.6835424
  66.4606585 102.0844193  27.3095850  66.9655438 102.9450099  26.1710088
  70.0513690 111.1738638  30.4306999  71.0031112 111.2736735  30.4519223
  69.8817140 110.3816906  30.9405083  68.0728069 108.2594221  30.6166400
  67.4778001 108.5399234  29.9212888  67.7877766 108.7488122  31.3883141
  62.1213729 110.7992797  39.0802690  62.0210456 111.7487154  39.0114781
  61.9035271 110.4711036  38.2078760  66.0908362 101.8816542  23.2069013
  65.3240758 101.3275028  23.3525695  66.5019067 101.9538411  24.0683164
  58.0950124 108.1701338  37.2974194  58.9581585 107.8138142  37.5077519
  57.5215534 107.8315232  37.9849598  13.9611195  20.8057335  23.5607871
  14.5051099  21.4187294  23.0662825  13.3798040  21.3636914  24.0774884
  23.7429729  30.1605728  14.8281902  24.3808139  30.0412475  14.1245242
  23.6250572  31.1086572  14.8869854  21.0339219  31.2668008  20.7229632
  21.0227859  30.8720806  19.8510136  21.1959858  30.5334081  21.3163403
  17.7546480  34.0505120  19.6708816  17.4636346  34.9550751  19.5555482
  18.3903464  34.0921647  20.3852885  18.6802687  31.4281968  16.2610176
  19.2766259  31.2037991  15.5467138  18.7377658  30.6866714  16.8635623
  22.7136365  33.7366535  16.6658610  22.4137088  34.6391574  16.5574417
  22.3687424  33.4698718  17.5179762  20.1874374  27.6738721  22.2890944
  19.4107708  28.2332641  22.2793809  20.8264937  28.1595504  22.8105814
  18.4420747  30.4824174  21.8508911  19.1835431  31.0209218  21.5743735
  17.7357732  31.1090463  22.0080463  23.9176086  32.6253315  20.4481073
  24.3259442  32.1835725  19.7035705  23.1953348  32.0505942  20.7015266
  20.2707156  27.5625922  17.8214630  21.1168352  27.9865335  17.9649279
  20.2105794  26.9059546  18.5153193  24.2404901  33.1854505  14.2033362
  23.6113763  33.3500220  13.5009429  23.8530563  33.5996115  14.9744326
  28.1194133  34.1208943  11.5577725  27.4345171  34.5007845  11.0074759
  28.2037982  34.7304270  12.2909673  23.4206602  25.2230290  19.4795803
  23.1767534  25.9772351  18.9430079  23.6966532  25.6015638  20.3143050
  25.3745064  31.7668902  18.1573069  25.5861960  32.4100662  17.4807450
  25.3274813  30.9331219  17.6894999  17.1782110  27.6363823  22.6524221
  16.5480771  28.3180103  22.8859618  17.0718198  27.5246904  21.7077359
  26.4890892  34.6440858  16.3295426  27.3108336  34.2421045  16.0478108
  26.4853295  34.5409092  17.2811542  20.2547496  34.1924901  18.4856137
  20.3191928  34.6545308  19.3214309  19.5458420  33.5622266  18.6138447
  34.5796885  30.9879606  12.6780398  33.8260594  30.4187004  12.5224402
  34.7144427  30.9542271  13.6251032  16.4562853  21.9384588  25.0149472
  16.0629799  21.3850787  25.6897116  17.2728993  22.2495167  25.4055990
  19.3730814  23.3542468  22.6069729  20.1140528  23.9549621  22.5274191
  19.6048737  22.6120105  22.0487771  14.5172152  28.5398835  20.8847958
  14.4025667  27.6384092  21.1855057  13.6616670  28.7862532  20.5332775
  21.5963990  36.4816575  22.4835459  21.1527844  35.6952954  22.1656364
  22.2581203  36.6695726  21.8179350  16.3551111  38.0112377  17.0096138
  16.9058536  37.8829440  16.2373132  15.5162587  38.3107266  16.6591030
  23.6945228  36.7619375  20.5116860  23.6763703  37.5828256  20.0197130
  24.6165148  36.6373450  20.7367002  20.1518282  34.2763504  21.3540369
  20.6846619  33.5151793  21.1239677  19.6232363  33.9837156  22.0964523
  26.4963841  31.5998517  13.9826227  25.8387515  32.2897779  14.0706356
  27.3004240  31.9894949  14.3260213  24.5164035  36.7725388  11.0959130
  24.8087009  37.3330445  10.3771495  25.0262656  37.0653949  11.8512289
  22.9263294  28.0189807  19.0833212  23.2812682  28.2461280  19.9427678
  23.5735425  28.3508184  18.4610467  28.6830411  33.2084770  14.7993813
  29.1166917  33.1160059  15.6476867  29.3961991  33.1842270  14.1613829
  22.4158306  36.8086864  16.3326913  22.4695328  37.3777800  17.1004629
  21.5473087  36.9788749  15.9680950  29.5445960  33.2508470  17.3326698
  29.7381850  34.1554281  17.5785973  29.4446578  32.7915890  18.1665283
  21.1982271  23.1366361  19.8317025  20.5510186  23.8356311  19.7381502
  21.9683286  23.5702505  20.1993273  24.6061069  33.4015213  22.9067579
  24.4546575  33.1725765  21.9897662  24.5965748  34.3585815  22.9198924
  21.3746405  30.9747126  17.8913845  22.3038465  31.1258286  17.7182812
  20.9537435  31.0631147  17.0362491  20.1734737  34.9997790  15.6612383
  20.0345823  34.6316575  16.5338321  19.3849333  35.5145430  15.4896340
  15.6984196  29.7847023  18.5753802  15.5603994  29.0527262  19.1765341
  16.6089120  29.6955923  18.2937989  18.3266497  29.4966982  18.0637481
  19.0366115  28.8560175  18.0224100  18.2835805  29.7479877  18.9863662
  26.3153276  36.4334336  20.9844060  26.2565822  35.7493556  20.3174643
  26.7172794  37.1753326  20.5324686  17.0395431  26.4832200  19.8833121
  16.5032788  26.0322939  20.5354717  16.4512139  26.6178109  19.1403585
  15.3343974  43.2496250  13.7777779  15.5740573  43.8814774  14.4556798
  14.4913171  42.8984290  14.0643139  26.3170683  34.3973920  19.2158040
  25.4297462  34.0599841  19.3384439  26.8869234  33.6656951  19.4526805
  19.8471836  39.0575372  16.1819283  19.7742008  39.8630344  16.6938588
  19.4049229  39.2567338  15.3567305  30.7988023  29.8082137  13.9774602
  30.7877900  30.6906853  13.6068535  29.9305403  29.4553688  13.7829139
  22.3070520  38.9562206  18.3377442  23.0198492  39.5909671  18.2653343
  21.8160548  39.0526072  17.5217444  17.3582433  36.7056650  19.1583013
  18.0591893  37.3393133  19.3112407  16.8877548  37.0471381  18.3978652
  25.1583719  29.2601257  16.9835563  24.5055169  29.5077164  16.3288016
  25.5364099  28.4465395  16.6498040  22.1190893  39.2960950  11.0863733
  22.3013288  38.4782606  11.5491486  22.9423879  39.5128642  10.6488623
  21.2071292  30.0021068  23.4701600  20.5311929  29.9015197  24.1403975
  22.0298926  29.8460282  23.9337597  12.9550151  36.2393005  16.0914115
  13.5403588  35.4936693  16.2242020  12.7574990  36.5496961  16.9750779
  19.9494075  41.3087996  17.7059216  20.5012383  41.4719617  18.4708301
  20.2900269  41.8992433  17.0339241  14.4010841  25.7286278  21.9554135
  15.0282880  25.3463355  22.5691659  13.5438760  25.5100480  22.3209828
  24.8004949  36.1349253  23.5607871  25.3444853  36.7479211  23.0662825
  24.2191794  36.6928831  24.0774884  23.0862462  39.2569971  14.6922898
  22.9613602  38.4559711  14.1833844  23.7441553  39.7516164  14.2036868
  25.1497371  37.0578991  16.3202448  24.2027706  36.9384342  16.2480775
  25.4980144  36.1701489  16.4028710  22.1543804  36.8531707  12.5206801
  22.0068766  35.9248415  12.7014371  22.9797298  36.8751798  12.0363876
  25.7577926  37.6760266  13.6071673  26.6824473  37.4703127  13.4696125
  25.5893229  37.4276667  14.5161015  20.0959886  38.8746477  19.7207871
  20.4047013  38.6295624  20.5930570  20.8935368  39.0793116  19.2326741
  20.1180498  41.0284387  11.9513247  19.6785489  40.5360765  12.6446104
  20.8688615  40.4857354  11.7105322  17.5654371  36.5722396  14.0235549
  16.9434380  35.9093101  13.7237777  18.2359238  36.5983528  13.3409197
  17.6378898  25.0504184  23.6168055  17.6867054  25.9266307  23.2345824
  18.1801412  24.5081577  23.0439698  28.1233744  35.5945307  22.8969192
  27.3329287  35.5769446  22.3573691  27.8867098  36.1333601  23.6518228
  28.2431619  32.4437773  20.2101920  28.2929624  32.2787781  21.1517443
  28.1345542  31.5765032  19.8199801  25.5335381  28.4268701  21.5261227
  26.4345244  28.2875166  21.2345225  25.6083356  28.5923156  22.4659405
  19.8678187  25.8035556  20.3714413  18.9981496  26.0969122  20.0997002
  20.1037667  26.3876001  21.0921677  29.7449816  34.8634715  20.4543942
  29.4534624  35.2264696  21.2907403  29.1321947  34.1501723  20.2757274
  30.9445498  32.4287595  12.9746512  31.7792389  32.8677399  13.1384073
  31.0804627  31.9526248  12.1554758  27.9937004  29.9867330  18.9224000
  28.4691125  30.1794976  18.1142851  27.0702569  30.0426515  18.6767384
  26.6938673  26.8633090  17.1552306  27.6456096  26.9631187  17.1764530
  26.5242123  26.0711358  17.6650390  29.1726751  30.0839209  16.2694605
  29.1403071  29.1455210  16.4554289  29.7827374  30.1623246  15.5360430
  29.3221239  26.8750253  16.3152888  28.8060288  26.0908709  16.1282817
  30.2061188  26.5468969  16.4799408  34.9903301  31.1455216  15.4100642
  35.7206689  30.8840504  15.9708345  34.3810246  30.4083938  15.4502710
  33.0718598  29.2863079  16.0075093  32.3451761  29.1519044  15.3991585
  32.6565885  29.5939907  16.8131811  20.8948774  33.0053008  23.7722466
  21.8151784  33.1831607  23.9662513  20.8598357  32.0609054  23.6202165
  18.7638712  26.4887249  25.8047996  18.6635439  27.4381606  25.7360087
  18.5460254  26.1605488  24.9324066  18.6269982  29.9184388  24.6213058
  18.1437064  30.7184748  24.8276947  18.7130921  29.9292333  23.6680502
  14.5543319  33.8088922  16.6581492  15.5086573  33.7772865  16.5911423
  14.3555843  33.3479546  17.4731718  15.1442702  32.3790038  19.2252289
  15.9635591  32.8734117  19.2487127  15.4179509  31.4622007  19.1969857
  32.9967465  28.8141132  12.1351946  32.4367023  28.8834321  12.9083508
  32.3910969  28.6382116  11.4151442  16.0662674  40.2477859  13.8870132
  15.9495058  41.1923291  13.7848823  15.2455120  39.9451421  14.2755931
  22.9231008  33.7809020  25.4236627  23.7922168  33.9549672  25.0623262
  22.4437760  34.6003437  25.3012356  17.0917188  40.9006121  17.1026061
  17.9944435  40.9329731  17.4192556  16.8654558  39.9706572  17.1172396
  18.8470790  39.6537107  13.7636139  17.8966421  39.6538969  13.6500512
  19.1503276  38.9069842  13.2472174  14.7375107  23.8595789  24.0219501
  15.6006568  23.5032594  24.2322825  14.1640518  23.5209684  24.7094905
  34.5823484  45.4897646  14.8281902  35.2201894  45.3704393  14.1245242
  34.4644327  46.4378490  14.8869854  31.3913190  45.4425074  14.7643426
  31.0531702  45.3266139  13.8763961  32.2602958  45.0416239  14.7444433
  27.2500006  47.2960550  10.7540317  26.6864871  47.2050487   9.9856605
  27.1352401  46.4760455  11.2342810  31.8732973  46.5959926  20.7229632
  31.8621614  46.2012724  19.8510136  32.0353613  45.8625998  21.3163403
  24.7964438  48.7911742  13.5924538  25.5885730  48.4502567  13.1770837
  25.0361088  48.9006717  14.5126691  32.8299564  50.9631518   6.0654782
  32.1787544  51.5485598   5.6788796  33.6243927  51.4937713   6.1249820
  26.7555192  48.0520655   6.4641917  27.5286068  47.5049642   6.3254792
  27.1080591  48.9164904   6.6756378  28.5940234  49.3797037  19.6708816
  28.3030100  50.2842668  19.5555482  29.2297219  49.4213565  20.3852885
  29.5196441  46.7573886  16.2610176  30.1160013  46.5329908  15.5467138
  29.5771413  46.0158631  16.8635623  34.1364752  43.2149100  11.9035110
  34.9227842  42.7968523  11.5525527  34.4003457  44.1195192  12.0716758
  34.3074830  48.6521950   6.6023767  33.6720663  48.7256576   7.3144671
  33.9772236  49.2415549   5.9242846  39.5373179  43.1524333  12.8068088
  40.2698351  42.5823550  13.0405918  38.7812535  42.7645933  13.2474594
  28.8117758  46.1141427   6.2984741  28.6954016  45.4386331   6.9665826
  28.9220018  45.6273801   5.4816895  31.1549299  45.5751574  10.0031431
  30.7907506  45.0482195  10.7144352  32.0116415  45.1850043   9.8297916
  37.0598600  36.8645907  17.2662697  36.7281925  37.7341318  17.0423912
  36.4644213  36.5482191  17.9456727  33.5530119  49.0658453  16.6658610
  33.2530842  49.9683492  16.5574417  33.2081179  48.7990636  17.5179762
  27.0042601  45.5172250  12.6995314  26.0793097  45.3848464  12.9073006
  27.2527014  46.2966469  13.1965256  36.9527263  41.5840993  14.3456047
  36.0444140  41.5156402  14.0514808  36.9014859  42.0612938  15.1737872
  30.7744007  43.0599132   5.9839446  30.6543632  43.5056182   6.8224926
  30.0796595  43.4084449   5.4252984  24.3651412  45.1605523  13.5339103
  24.4943793  45.4140002  14.4478515  23.6848863  45.7533231  13.2143758
  28.5350899  55.8302773   9.6329577  28.4574929  56.7810598   9.7118058
  27.9312543  55.4848646  10.2904504  31.0268129  43.0030639  22.2890944
  30.2501463  43.5624559  22.2793809  31.6658692  43.4887422  22.8105814
  38.8188909  39.7857432  16.1233921  38.1763290  40.0789965  15.4773715
  38.3143838  39.6710352  16.9287117  36.4729073  43.5320605   6.8119780
  37.3846929  43.7647991   6.6367478  35.9638720  44.1157649   6.2494859
  29.2814501  45.8116092  21.8508911  30.0229186  46.3501136  21.5743735
  28.5751487  46.4382381  22.0080463  31.1100911  42.8917839  17.8214630
  31.9562106  43.3157253  17.9649279  31.0499549  42.2351464  18.5153193
  35.0798655  48.5146423  14.2033362  34.4507518  48.6792137  13.5009429
  34.6924318  48.9288033  14.9744326  38.9587887  49.4500861  11.5577725
  38.2738925  49.8299762  11.0074759  39.0431737  50.0596188  12.2909673
  34.2600356  40.5522208  19.4795803  34.0161288  41.3064268  18.9430079
  34.5360287  40.9307555  20.3143050  36.2138819  47.0960820  18.1573069
  36.4255714  47.7392580  17.4807450  36.1668567  46.2623137  17.6894999
  33.8165048  39.7078641  15.0609641  32.9549527  40.0059894  15.3526379
  33.8427483  39.9249040  14.1290674  30.6326617  48.2520831  11.4683447
  31.0964963  48.5308534  10.6788069  30.3683415  47.3504276  11.2856537
  27.5250698  47.7992313  14.4063210  28.0952055  48.2279581  13.7680694
  28.1158810  47.5174897  15.1047396  29.5695503  44.3743984   8.2773012
  30.2719547  44.8265027   8.7446938  29.2376132  43.7327802   8.9052905
  28.0175865  42.9655740  22.6524221  27.3874525  43.6472021  22.8859618
  27.9111953  42.8538822  21.7077359  23.3120837  42.6327536  13.5790145
  22.5219891  42.8885065  13.1030256  23.8032085  43.4475874  13.6842186
  37.3284647  49.9732775  16.3295426  38.1502091  49.5712963  16.0478108
  37.3247050  49.8701010  17.2811542  25.2635583  42.9972116  10.5373622
  24.4666746  43.1090810  11.0557118  25.0361175  43.3358768   9.6714513
  31.0941250  49.5216819  18.4856137  31.1585683  49.9837226  19.3214309
  30.3852174  48.8914184  18.6138447  21.5958540  42.8858027  16.0105136
  21.8466579  43.7705037  16.2762712  22.1318089  42.7062628  15.2380228
  45.4190640  46.3171524  12.6780398  44.6654348  45.7478922  12.5224402
  45.5538181  46.2834188  13.6251032  30.8089268  51.1884926   8.3535117
  30.6734943  52.0336462   8.7819965  31.3499080  51.3904204   7.5901051
  27.2956608  37.2676506  25.0149472  26.9023553  36.7142705  25.6897116
  28.1122748  37.5787085  25.4055990  24.2618665  48.7060364   8.9263042
  24.7743186  49.5003615   9.0768607  24.9141378  48.0086655   8.8596644
  26.0713550  51.8226121  11.0085795  26.2480178  52.7444085  10.8206779
  26.8670384  51.5084540  11.4380175  30.2124569  38.6834385  22.6069729
  30.9534282  39.2841538  22.5274191  30.4442491  37.9412023  22.0487771
  25.3565907  43.8690752  20.8847958  25.2419422  42.9676010  21.1855057
  24.5010424  44.1154449  20.5332775  32.4357744  51.8108493  22.4835459
  31.9921599  51.0244871  22.1656364  33.0974958  51.9987643  21.8179350
  27.1944866  53.3404294  17.0096138  27.7452291  53.2121358  16.2373132
  26.3556341  53.6399183  16.6591030  34.5338982  52.0911293  20.5116860
  34.5157458  52.9120174  20.0197130  35.4558902  51.9665368  20.7367002
  30.9912037  49.6055422  21.3540369  31.5240373  48.8443710  21.1239677
  30.4626118  49.3129074  22.0964523  34.1581732  34.7115488  16.8834010
  33.8146001  35.6017130  16.8073121  34.5260694  34.5217146  16.0203595
  22.2267582  47.0349019   9.7022613  23.0642804  47.4446027   9.4856320
  22.4045850  46.0948461   9.6722807  34.1232014  44.7024099   5.3906446
  33.6078638  45.4728704   5.6294833  33.8509323  44.0289235   6.0139507
  31.7079125  39.5473800  10.4491684  30.8520722  39.1580650  10.2697323
  32.1206077  39.6265761   9.5891469  33.2378272  37.0820143  14.8483244
  32.7343068  37.0450278  14.0351049  33.5308879  37.9912886  14.9079900
  29.4821158  37.1658873  13.8549425  30.3474155  36.9701682  13.4955315
  29.5498667  36.9369225  14.7818782  39.0966288  47.4556454   7.3259619
  38.3195731  47.1167613   6.8814781  39.7757769  47.4609077   6.6514584
  33.9118317  42.5751191   7.2166227  33.6068453  42.8897341   8.0676370
  34.8648760  42.6532611   7.2593560  32.3564749  48.7341415   8.8659181
  31.8286111  47.9994174   8.5532418  31.8552252  49.5116091   8.6199149
  37.3357595  46.9290435  13.9826227  36.6781270  47.6189697  14.0706356
  38.1397995  47.3186867  14.3260213  27.0883477  39.3961081  11.2265792
  27.6627229  39.1736262  10.4938985  27.6754459  39.4649775  11.9794394
  36.1463054  45.2834808  12.0330169  36.6594936  45.9164800  12.5351879
  36.7964278  44.6836003  11.6673529  29.3906145  36.2702330   9.9540862
  28.7370557  35.9551347   9.3297476  29.3486619  35.6478070  10.6800685
  33.4085428  55.2619132   4.7890840  32.7347127  55.5650829   5.3975798
  33.7951250  56.0648212   4.4396297  32.6243885  42.7584263  14.2788509
  31.7066446  42.9799210  14.1210197  33.0404029  42.8330574  13.4200217
  33.4078933  44.1575679   9.4091190  34.1550752  44.6697076   9.0998312
  33.6770522  43.8359732  10.2695583  31.6805583  46.6534220   6.3918144
  30.7716802  46.3693253   6.4890614  31.7100667  47.0733298   5.5321451
  36.9124850  50.2640809  10.1609311  36.4587177  49.4231719  10.2174502
  36.2818817  50.9002208  10.4984092  35.8557770  41.1932795  11.3909979
  35.1180527  40.6810182  11.7220221  36.1084543  40.7533177  10.5793256
  35.3557790  52.1017306  11.0959130  35.6480764  52.6622363  10.3771495
  35.8656410  52.3945867  11.8512289  35.9569397  33.9709047  11.9851748
  36.2628274  33.1106411  11.6977663  36.6822002  34.5626668  11.7850742
  22.2493753  44.3739734  10.3733346  22.0518153  43.7809095   9.6484413
  21.6940417  44.0691944  11.0909285  30.2290477  44.2662840  12.4927939
  30.2839087  43.3136677  12.4170416  29.4181679  44.4222279  12.9769238
  31.3781671  48.1942963   3.7306222  30.9401101  47.4778822   3.2711860
  32.1192112  48.4219078   3.1691314  28.1682837  42.8839900  10.2518318
  27.3550702  43.1834071  10.6583510  28.6641831  42.4895589  10.9692800
  30.3191415  52.8797657  12.1852583  30.2767594  53.1058503  11.2561115
  31.2354114  52.6461032  12.3338384  33.7657049  43.3481725  19.0833212
  34.1206436  43.5753198  19.9427678  34.4129180  43.6800101  18.4610467
  39.4954786  46.4700160   9.7882541  39.3572684  46.6601756   8.8603730
  39.1391004  47.2319543  10.2450592  27.6596912  40.4558256  15.8679553
  28.2996291  40.3147015  15.1702516  26.8274442  40.1692769  15.4918155
  39.5224165  48.5376687  14.7993813  39.9560672  48.4451977  15.6476867
  40.2355746  48.5134188  14.1613829  28.4357216  49.7560686  11.9814545
  29.2297814  49.2611006  11.7797120  27.7248908  49.2278549  11.6182251
  33.2552060  52.1378782  16.3326913  33.3089082  52.7069718  17.1004629
  32.3866841  52.3080667  15.9680950  24.7439979  43.9003768   8.0574298
  23.8137567  43.8388223   8.2744260  24.8397451  43.3779721   7.2610939
  24.6625528  40.4258581  10.6452540  24.9232345  41.3403914  10.5361700
  25.4842700  39.9583023  10.7949153  26.1350453  41.8396338  17.8151364
  26.8073507  41.6313700  17.1664013  25.3080240  41.6418424  17.3756597
  40.3839715  48.5800388  17.3326698  40.5775605  49.4846199  17.5785973
  40.2840333  48.1207807  18.1665283  32.0376025  38.4658279  19.8317025
  31.3903940  39.1648228  19.7381502  32.8077041  38.8994423  20.1993273
  32.2140160  46.3039044  17.8913845  33.1432220  46.4550203  17.7182812
  31.7931190  46.3923064  17.0362491  31.0128492  50.3289708  15.6612383
  30.8739577  49.9608492  16.5338321  30.2243088  50.8437347  15.4896340
  31.6076644  55.4298805   7.0037919  31.7828399  54.9586848   7.8183542
  30.9209432  56.0564571   7.2319180  32.5633707  49.7071311  13.0501220
  32.2283539  49.6672081  13.9458870  32.0637652  49.0416027  12.5771631
  26.5377951  45.1138941  18.5753802  26.3997749  44.3819180  19.1765341
  27.4482874  45.0247841  18.2937989  35.4992898  47.0527345   3.3238280
  34.8822069  46.3274173   3.2271333  35.0309387  47.8136705   2.9805354
  29.1660251  44.8258900  18.0637481  29.8759870  44.1852092  18.0224100
  29.1229559  45.0771795  18.9863662  27.8789185  41.8124118  19.8833121
  27.3426542  41.3614856  20.5354717  27.2905894  41.9470027  19.1403585
  26.1737729  58.5788167  13.7777779  26.4134327  59.2106691  14.4556798
  25.3306925  58.2276207  14.0643139  18.8093584  46.0589929  12.5401091
  19.4964624  45.7451659  11.9522107  18.6541713  46.9631294  12.2668343
  23.6128307  40.9480126  16.9686115  23.5286495  40.3405795  16.2336525
  22.7911013  41.4389144  16.9695611  30.6865591  54.3867290  16.1819283
  30.6135762  55.1922261  16.6938588  30.2442984  54.5859256  15.3567305
  30.4755370  53.6239060   9.6922105  29.6922892  54.1660740   9.7860329
  31.1748115  54.1413039  10.0916346  33.7852020  39.4333689  12.3356310
  34.2820720  38.6803652  12.0157380  33.0139002  39.4698006  11.7699520
  41.6381778  45.1374055  13.9774602  41.6271654  46.0198770  13.6068535
  40.7699157  44.7845606  13.7829139  33.1464274  54.2854124  18.3377442
  33.8592246  54.9201589  18.2653343  32.6554303  54.3817990  17.5217444
  34.8681801  48.1905376   9.9094734  33.9338080  48.3106839   9.7399438
  35.0458470  47.2877843   9.6454743  30.3686989  41.5751072  12.0627995
  29.9984777  41.0222113  12.7508900  30.8646082  40.9709206  11.5102995
  38.2554352  44.0322696  10.4444768  38.7214805  44.8650687  10.3705070
  38.7061853  43.5667677  11.1490026  28.1976188  52.0348567  19.1583013
  28.8985647  52.6685050  19.3112407  27.7271303  52.3763299  18.3978652
  36.3230584  50.3766517   7.4430920  36.5990427  50.2623112   8.3524794
  35.4535082  49.9784002   7.4043093  36.2271015  36.4003283  14.4835669
  35.3134095  36.6307510  14.6517876  36.6564117  36.4841727  15.3349701
  35.9977474  44.5893175  16.9835563  35.3448924  44.8369082  16.3288016
  36.3757854  43.7757313  16.6498040  32.9584648  54.6252868  11.0863733
  33.1407042  53.8074524  11.5491486  33.7817634  54.8420560  10.6488623
  33.2926813  53.5521053   8.3478782  33.8214579  53.0413508   7.7348944
  33.5555033  53.2363583   9.2124315  32.0465047  45.3312986  23.4701600
  31.3705684  45.2307115  24.1403975  32.8692681  45.1752199  23.9337597
  23.7943906  51.5684922  16.0914115  24.3797343  50.8228610  16.2242020
  23.5968744  51.8788879  16.9750779  26.6482561  54.6036170  11.1076558
  25.9792936  55.0882297  10.6240598  26.5095431  54.8505390  12.0219936
  18.3861561  44.1390522  14.8118559  18.4245660  43.6054113  15.6055677
  17.8801853  43.6125728  14.1929536  30.7887830  56.6379913  17.7059216
  31.3406138  56.8011535  18.4708301  31.1294023  57.2284351  17.0339241
  25.7652323  38.9855063  18.3081101  25.8293649  39.8469894  17.8958499
  25.7019443  38.3729065  17.5753459  25.2404595  41.0578196  21.9554135
  25.8676634  40.6755273  22.5691659  24.3832514  40.8392397  22.3209828
  33.9256217  54.5861889  14.6922898  33.8007356  53.7851629  14.1833844
  34.5835308  55.0808082  14.2036868  25.5464385  40.9410621  13.8700039
  24.8250971  41.5546589  13.7307512  26.3357641  41.4768386  13.7916685
  35.9891125  52.3870909  16.3202448  35.0421461  52.2676260  16.2480775
  36.3373898  51.4993407  16.4028710  28.3490699  38.2765048  20.1440690
  28.8725100  38.5227344  20.9067000  28.1303032  39.1085083  19.7243828
  32.9937559  52.1823625  12.5206801  32.8462521  51.2540332  12.7014371
  33.8191052  52.2043716  12.0363876  26.8599803  40.8341692   8.3787293
  27.1995875  41.3627613   7.6565901  27.3071923  41.1722098   9.1545859
  36.5971680  53.0052184  13.6071673  37.5218228  52.7995045  13.4696125
  36.4286984  52.7568585  14.5161015  29.5543244  39.2178743  17.8290361
  29.2140064  38.4186556  18.2311041  28.8482250  39.5180454  17.2567194
  30.2059715  36.3028055  16.2817684  31.0285785  35.8288533  16.1596574
  30.4497779  37.0818539  16.7816370  32.9899073  40.0361463   7.5138918
  33.2062687  40.9186101   7.2127746  32.5093140  39.6447676   6.7844560
  27.7298294  42.9947176  14.0909662  27.5842875  43.3087479  14.9833944
  27.2523498  43.6132076  13.5380561  29.5894677  39.9849724  14.1390552
  29.5756246  39.0890817  13.8022850  30.3067105  39.9920388  14.7728838
  31.4420808  40.4187064  16.1843679  31.1838586  41.3404135  16.1828010
  30.9105848  40.0217499  16.8744144  36.3866997  53.5237851   8.9633765
  36.5603874  52.9584274   8.2107617  36.8795888  54.3238746   8.7813255
  22.2043956  45.5352520  17.0297324  21.6597424  46.3112328  17.1617598
  23.0823306  45.8823325  16.8716445  28.9931573  38.8664104   9.4078122
  29.1147484  37.9380750   9.6069010  28.7033615  38.8802790   8.4956438
  31.8622763  36.5519015  12.5444842  31.8844460  36.6158348  11.5896822
  32.2790822  35.7123523  12.7385348  42.2406388  46.2874274  10.5824065
  42.6837534  45.5381599  10.1843188  41.3632898  46.2784410  10.1997797
  37.3742169  52.8404616   6.0630663  38.0693074  53.4611308   6.2817978
  37.7165319  51.9899967   6.3383041  22.9909978  44.6622417  19.9227481
  22.2491714  44.8105052  20.5092111  22.6702723  44.9230682  19.0594230
  39.2733592  50.2904321   7.5917994  39.7984916  50.6291594   6.8667314
  39.1855945  49.3551336   7.4081129  30.9353641  54.2038395  19.7207871
  31.2440767  53.9587542  20.5930570  31.7329123  54.4085033  19.2326741
  30.9574253  56.3576304  11.9513247  30.5179243  55.8652683  12.6446104
  31.7082370  55.8149272  11.7105322  23.4366592  52.5487845  11.9537875
  24.2624612  52.2491617  11.5736519  23.0860644  51.7795468  12.4027664
  28.4048125  51.9014313  14.0235549  27.7828134  51.2385019  13.7237777
  29.0752992  51.9275445  13.3409197  21.6375197  50.4674172  12.9126809
  20.8007105  50.0396346  12.7310810  21.6098842  50.6606615  13.8497600
  28.4772653  40.3796102  23.6168055  28.5260808  41.2558224  23.2345824
  29.0195167  39.8373495  23.0439698  27.9661632  50.4518237   7.4994009
  28.1149752  51.1353701   6.8460682  28.7728075  50.4323327   8.0143465
  36.3729136  43.7560619  21.5261227  37.2738998  43.6167084  21.2345225
  36.4477110  43.9215074  22.4659405  30.7071941  41.1327474  20.3714413
  29.8375250  41.4261040  20.0997002  30.9431421  41.7167919  21.0921677
  41.7839252  47.7579512  12.9746512  42.6186144  48.1969317  13.1384073
  41.9198381  47.2818166  12.1554758  38.8330758  45.3159247  18.9224000
  39.3084880  45.5086894  18.1142851  37.9096324  45.3718433  18.6767384
  25.7214265  46.4783414   8.5055078  25.4760307  45.5745744   8.7035288
  25.8910180  46.4800565   7.5634556  33.4110975  37.3507091  17.8879834
  33.9292919  38.0868118  17.5626322  33.0566108  37.6571084  18.7226593
  33.6623569  33.7707373  13.4080730  33.9425323  33.1030562  14.0341157
  34.4474176  33.9636469  12.8955394  31.4657038  52.9466367   4.9705757
  30.8931005  53.5656554   4.5176229  32.0389831  53.4965729   5.5045679
  37.5332427  42.1925007  17.1552306  38.4849850  42.2923105  17.1764530
  37.3635878  41.4003276  17.6650390  35.5546807  39.2780591  17.3411706
  34.9596739  39.5585603  16.6458195  35.2696504  39.7674492  18.1128448
  34.6854297  53.2303517   6.1014339  35.6184970  53.1649079   6.3047215
  34.5977510  54.0659784   5.6428872  37.3142314  52.5469388   3.0618287
  37.2355946  52.2129251   3.9554044  38.1351981  53.0391156   3.0609759
  40.0120505  45.4131127  16.2694605  39.9796825  44.4747128  16.4554289
  40.6221129  45.4915164  15.5360430  40.1614994  42.2042170  16.3152888
  39.6454042  41.4200627  16.1282817  41.0454942  41.8760887  16.4799408
  37.8225721  35.9483186  12.2748701  37.6250542  35.6398274  13.1592033
  38.4325426  36.6744825  12.4046631  45.8297055  46.4747134  15.4100642
  46.5600444  46.2132422  15.9708345  45.2204001  45.7375856  15.4502710
  31.7342529  48.3344926  23.7722466  32.6545538  48.5123525  23.9662513
  31.6992112  47.3900972  23.6202165  20.9524694  43.5283520  12.6975741
  20.6327478  42.6748828  12.4050115  20.4058122  43.7432098  13.4533708
  24.7304601  46.2445961  16.4145247  24.9490611  47.1763069  16.4333281
  25.1430375  45.8853935  17.2000051  31.6508819  36.7514046   8.4020936
  30.8409547  36.4061131   8.7776182  32.3393236  36.4421590   8.9908547
  33.5799367  35.8292093  10.0245232  34.1330406  36.2487546  10.6835255
  33.8169454  34.9027841  10.0668188  29.6032466  41.8179167  25.8047996
  29.5029193  42.7673524  25.7360087  29.3854008  41.4897405  24.9324066
  20.8212954  47.1486431  14.6668862  20.1276425  46.7340384  14.1538817
  21.5685945  47.1906968  14.0702281  36.9578174  37.9392618   9.5323897
  36.3776843  38.5977422   9.1501949  36.6914107  37.1169963   9.1211314
  35.4081741  37.3397676  11.7345217  35.9081519  37.4514210  10.9259536
  36.0517349  37.0358729  12.3746025  29.4663736  45.2476305  24.6213058
  28.9830818  46.0476666  24.8276947  29.5524676  45.2584250  23.6680502
  22.7349696  47.0804685  12.5434877  22.7120384  47.1792372  11.5916760
  23.0450333  47.9269836  12.8652043  25.3937074  49.1380840  16.6581492
  26.3480328  49.1064782  16.5911423  25.1949598  48.6771464  17.4731718
  25.9836456  47.7081956  19.2252289  26.8029345  48.2026035  19.2487127
  26.2573264  46.7913924  19.1969857  35.7403052  40.0992708   8.5880245
  34.8528907  40.3842359   8.3700440  36.1557041  39.9386472   7.7407522
  39.0917588  40.1239229  12.3034584  39.8677979  40.6135682  12.5759201
  38.3665723  40.5497284  12.7606454  41.5290147  40.8366849  13.3608525
  42.1234638  40.5962585  12.6501833  41.6016731  40.1173979  13.9882061
  23.7487303  54.6800460  13.6751690  23.6141771  53.9200861  13.1089688
  23.3319365  55.4041359  13.2080478  34.8846266  49.8637383   2.6828265
  35.5882116  50.0687386   3.2985921  34.1608915  50.4314145   2.9477348
  35.7144076  45.6147244   8.8030535  35.6579277  46.0715796   7.9638167
  36.2672419  44.8537929   8.6253378  39.5248882  41.4036976   9.6280655
  39.2685816  41.0033612  10.4588862  38.9001750  42.1180770   9.5030794
  43.8361220  44.1433050  12.1351946  43.2760778  44.2126239  12.9083508
  43.2304723  43.9674034  11.4151442  26.9056429  55.5769777  13.8870132
  26.7888813  56.5215209  13.7848823  26.0848875  55.2743338  14.2755931
  36.7932963  50.3019912   4.7326725  37.6278567  49.8701111   4.5504200
  36.6317306  50.1301926   5.6603619  36.4478855  46.8052026   6.0983064
  36.3927659  46.6396297   5.1571508  35.8224911  47.5128059   6.2545254
  21.2371370  42.0420090  19.9244486  21.8830234  41.5319044  20.4131712
  21.0288521  42.7788772  20.4987912  27.9310943  56.2298039  17.1026061
  28.8338189  56.2621649  17.4192556  27.7048313  55.2998489  17.1172396
  29.6864545  54.9829025  13.7636139  28.7360176  54.9830887  13.6500512
  29.9897031  54.2361760  13.2472174  33.5727100  32.9002911   9.9314319
  32.8059496  32.3461398  10.0771002  33.9837805  32.9724780  10.7928471
  25.5768861  39.1887707  24.0219501  26.4400323  38.8324512  24.2322825
  25.0034272  38.8501602  24.7094905  45.4217238  60.8189563  14.8281902
  46.0595648  60.6996311  14.1245242  45.3038081  61.7670407  14.8869854
  42.2306945  60.7716992  14.7643426  41.8925456  60.6558056  13.8763961
  43.0996713  60.3708157  14.7444433  38.0893760  62.6252468  10.7540317
  37.5258625  62.5342405   9.9856605  37.9746155  61.8052372  11.2342810
  35.6358192  64.1203660  13.5924538  36.4279484  63.7794484  13.1770837
  35.8754842  64.2298635  14.5126691  43.6693319  66.2923436   6.0654782
  43.0181299  66.8777516   5.6788796  44.4637682  66.8229631   6.1249820
  37.5948946  63.3812573   6.4641917  38.3679822  62.8341560   6.3254792
  37.9474345  64.2456822   6.6756378  39.4333989  64.7088955  19.6708816
  39.1423855  65.6134586  19.5555482  40.0690973  64.7505483  20.3852885
  40.3590196  62.0865804  16.2610176  40.9553768  61.8621826  15.5467138
  40.4165167  61.3450549  16.8635623  39.9315224  59.5405239   4.0960367
  40.1840745  59.0186760   3.3343830  38.9939783  59.3771384   4.1987050
  44.9758507  58.5441017  11.9035110  45.7621596  58.1260440  11.5525527
  45.2397211  59.4487110  12.0716758  45.1468584  63.9813868   6.6023767
  44.5114417  64.0548494   7.3144671  44.8165991  64.5707466   5.9242846
  50.3766934  58.4816251  12.8068088  51.1092106  57.9115467  13.0405918
  49.6206290  58.0937851  13.2474594  39.6511513  61.4433345   6.2984741
  39.5347771  60.7678248   6.9665826  39.7613773  60.9565719   5.4816895
  41.9943054  60.9043492  10.0031431  41.6301261  60.3774113  10.7144352
  42.8510170  60.5141961   9.8297916  47.8992354  52.1937825  17.2662697
  47.5675679  53.0633236  17.0423912  47.3037968  51.8774109  17.9456727
  41.6348541  55.9333392   4.9992779  41.8022943  56.8013628   5.3663250
  41.4445710  56.0960673   4.0754068  44.3923874  64.3950371  16.6658610
  44.0924597  65.2975409  16.5574417  44.0474933  64.1282554  17.5179762
  37.8436355  60.8464167  12.6995314  36.9186852  60.7140382  12.9073006
  38.0920768  61.6258387  13.1965256  47.7921018  56.9132911  14.3456047
  46.8837895  56.8448319  14.0514808  47.7408613  57.3904856  15.1737872
  41.6137761  58.3891049   5.9839446  41.4937387  58.8348100   6.8224926
  40.9190350  58.7376367   5.4252984  35.2045166  60.4897441  13.5339103
  35.3337547  60.7431920  14.4478515  34.5242618  61.0825149  13.2143758
  39.3744654  71.1594691   9.6329577  39.2968683  72.1102516   9.7118058
  38.7706297  70.8140563  10.2904504  49.6582664  55.1149349  16.1233921
  49.0157044  55.4081882  15.4773715  49.1537592  55.0002270  16.9287117
  47.3122828  58.8612522   6.8119780  48.2240684  59.0939909   6.6367478
  46.8032475  59.4449567   6.2494859  45.5963595  63.2837150  20.4481073
  46.0046951  62.8419561  19.7035705  44.8740857  62.7089778  20.7015266
  45.9192410  63.8438341  14.2033362  45.2901272  64.0084055  13.5009429
  45.5318072  64.2579950  14.9744326  49.7981642  64.7792779  11.5577725
  49.1132680  65.1591680  11.0074759  49.8825491  65.3888105  12.2909673
  47.0532573  62.4252738  18.1573069  47.2649469  63.0684498  17.4807450
  47.0062322  61.5915054  17.6894999  44.6558802  55.0370558  15.0609641
  43.7943281  55.3351812  15.3526379  44.6821237  55.2540957  14.1290674
  41.4720372  63.5812749  11.4683447  41.9358717  63.8600452  10.6788069
  41.2077170  62.6796194  11.2856537  38.3644453  63.1284230  14.4063210
  38.9345810  63.5571499  13.7680694  38.9552565  62.8466815  15.1047396
  40.4089258  59.7035901   8.2773012  41.1113301  60.1556945   8.7446938
  40.0769886  59.0619720   8.9052905  34.1514592  57.9619454  13.5790145
  33.3613646  58.2176982  13.1030256  34.6425839  58.7767792  13.6842186
  48.1678401  65.3024693  16.3295426  48.9895845  64.9004880  16.0478108
  48.1640804  65.1992927  17.2811542  36.1029337  58.3264033  10.5373622
  35.3060500  58.4382727  11.0557118  35.8754929  58.6650685   9.6714513
  41.9335005  64.8508736  18.4856137  41.9979437  65.3129144  19.3214309
  41.2245929  64.2206101  18.6138447  32.4352295  58.2149944  16.0105136
  32.6860333  59.0996954  16.2762712  32.9711843  58.0354546  15.2380228
  56.2584394  61.6463442  12.6780398  55.5048103  61.0770840  12.5224402
  56.3931936  61.6126106  13.6251032  41.6483022  66.5176844   8.3535117
  41.5128697  67.3628380   8.7819965  42.1892835  66.7196122   7.5901051
  35.1012420  64.0352282   8.9263042  35.6136940  64.8295532   9.0768607
  35.7535133  63.3378572   8.8596644  36.9107305  67.1518038  11.0085795
  37.0873933  68.0736003  10.8206779  37.7064138  66.8376457  11.4380175
  43.2751499  67.1400410  22.4835459  42.8315353  66.3536789  22.1656364
  43.9368712  67.3279561  21.8179350  38.0338620  68.6696212  17.0096138
  38.5846045  68.5413275  16.2373132  37.1950096  68.9691101  16.6591030
  45.3732737  67.4203210  20.5116860  45.3551212  68.2412091  20.0197130
  46.2952657  67.2957286  20.7367002  41.8305791  64.9347340  21.3540369
  42.3634128  64.1735628  21.1239677  41.3019872  64.6420992  22.0964523
  44.9975486  50.0407406  16.8834010  44.6539755  50.9309047  16.8073121
  45.3654449  49.8509063  16.0203595  33.0661337  62.3640936   9.7022613
  33.9036559  62.7737945   9.4856320  33.2439604  61.4240378   9.6722807
  44.9625769  60.0316017   5.3906446  44.4472392  60.8020622   5.6294833
  44.6903077  59.3581153   6.0139507  42.5472880  54.8765718  10.4491684
  41.6914476  54.4872568  10.2697323  42.9599832  54.9557678   9.5891469
  44.0772026  52.4112061  14.8483244  43.5736822  52.3742196  14.0351049
  44.3702633  53.3204804  14.9079900  40.3214912  52.4950791  13.8549425
  41.1867909  52.2993599  13.4955315  40.3892421  52.2661142  14.7818782
  49.9360043  62.7848372   7.3259619  49.1589486  62.4459531   6.8814781
  50.6151524  62.7900995   6.6514584  44.7512072  57.9043109   7.2166227
  44.4462208  58.2189258   8.0676370  45.7042514  57.9824529   7.2593560
  43.1958504  64.0633332   8.8659181  42.6679865  63.3286092   8.5532418
  42.6946007  64.8408009   8.6199149  48.1751350  62.2582353  13.9826227
  47.5175024  62.9481614  14.0706356  48.9791749  62.6478785  14.3260213
  37.9277231  54.7252999  11.2265792  38.5020983  54.5028180  10.4938985
  38.5148214  54.7941693  11.9794394  46.9856809  60.6126725  12.0330169
  47.4988690  61.2456717  12.5351879  47.6358032  60.0127921  11.6673529
  38.2546819  56.7557460   5.2461678  37.4184131  57.0932146   5.5670952
  38.1151588  56.6206439   4.3088815  40.2299899  51.5994248   9.9540862
  39.5764311  51.2843265   9.3297476  40.1880373  50.9769988  10.6800685
  41.3411104  61.8813543   1.8694154  40.4338166  61.6502796   2.0685303
  41.8382136  61.0851162   2.0568135  44.2479183  70.5911050   4.7890840
  43.5740882  70.8942747   5.3975798  44.6345005  71.3940130   4.4396297
  43.4637639  58.0876181  14.2788509  42.5460201  58.3091128  14.1210197
  43.8797783  58.1622492  13.4200217  44.2472687  59.4867597   9.4091190
  44.9944506  59.9988994   9.0998312  44.5164277  59.1651649  10.2695583
  42.5199337  61.9826137   6.3918144  41.6110557  61.6985170   6.4890614
  42.5494421  62.4025216   5.5321451  47.7518605  65.5932727  10.1609311
  47.2980932  64.7523637  10.2174502  47.1212572  66.2294125  10.4984092
  46.6951524  56.5224713  11.3909979  45.9574281  56.0102099  11.7220221
  46.9478298  56.0825095  10.5793256  46.1951544  67.4309224  11.0959130
  46.4874518  67.9914281  10.3771495  46.7050165  67.7237785  11.8512289
  46.7963152  49.3000965  11.9851748  47.1022029  48.4398328  11.6977663
  47.5215757  49.8918585  11.7850742  33.0887508  59.7031652  10.3733346
  32.8911908  59.1101012   9.6484413  32.5334172  59.3983862  11.0909285
  41.0684231  59.5954758  12.4927939  41.1232841  58.6428594  12.4170416
  40.2575433  59.7514197  12.9769238  42.2175425  63.5234881   3.7306222
  41.7794855  62.8070740   3.2711860  42.9585866  63.7510996   3.1691314
  39.0076591  58.2131818  10.2518318  38.1944457  58.5125988  10.6583510
  39.5035586  57.8187507  10.9692800  41.1585169  68.2089575  12.1852583
  41.1161348  68.4350421  11.2561115  42.0747868  67.9752949  12.3338384
  50.3348540  61.7992078   9.7882541  50.1966439  61.9893674   8.8603730
  49.9784759  62.5611461  10.2450592  38.4990666  55.7850173  15.8679553
  39.1390045  55.6438932  15.1702516  37.6668197  55.4984687  15.4918155
  50.3617920  63.8668605  14.7993813  50.7954426  63.7743894  15.6476867
  51.0749500  63.8426106  14.1613829  39.2750970  65.0852604  11.9814545
  40.0691569  64.5902924  11.7797120  38.5642662  64.5570467  11.6182251
  44.0945815  67.4670699  16.3326913  44.1482837  68.0361636  17.1004629
  43.2260596  67.6372584  15.9680950  35.5833734  59.2295685   8.0574298
  34.6531322  59.1680141   8.2744260  35.6791205  58.7071638   7.2610939
  35.5019283  55.7550498  10.6452540  35.7626100  56.6695832  10.5361700
  36.3236455  55.2874941  10.7949153  36.9744208  57.1688255  17.8151364
  37.6467261  56.9605618  17.1664013  36.1473994  56.9710341  17.3756597
  41.8522246  65.6581626  15.6612383  41.7133332  65.2900410  16.5338321
  41.0636842  66.1729265  15.4896340  42.4470398  70.7590722   7.0037919
  42.6222154  70.2878765   7.8183542  41.7603186  71.3856488   7.2319180
  43.4027461  65.0363228  13.0501220  43.0677294  64.9963998  13.9458870
  42.9031407  64.3707944  12.5771631  37.3771705  60.4430858  18.5753802
  37.2391503  59.7111097  19.1765341  38.2876629  60.3539759  18.2937989
  46.3386653  62.3819263   3.3238280  45.7215823  61.6566091   3.2271333
  45.8703141  63.1428623   2.9805354  47.9940784  67.0918171  20.9844060
  47.9353331  66.4077391  20.3174643  48.3960303  67.8337161  20.5324686
  37.0131483  73.9080085  13.7777779  37.2528082  74.5398609  14.4556798
  36.1700680  73.5568125  14.0643139  38.1285199  56.6004687   2.4459584
  37.2514665  56.4793488   2.0821831  38.6042952  55.8090765   2.1938473
  47.9958192  65.0557755  19.2158040  47.1084971  64.7183677  19.3384439
  48.5656743  64.3240786  19.4526805  29.6487339  61.3881847  12.5401091
  30.3358379  61.0743577  11.9522107  29.4935468  62.2923211  12.2668343
  34.4522061  56.2772043  16.9686115  34.3680250  55.6697713  16.2336525
  33.6304767  56.7681062  16.9695611  41.5259345  69.7159207  16.1819283
  41.4529517  70.5214179  16.6938588  41.0836738  69.9151173  15.3567305
  41.3149125  68.9530977   9.6922105  40.5316647  69.4952658   9.7860329
  42.0141870  69.4704957  10.0916346  44.6245775  54.7625607  12.3356310
  45.1214474  54.0095569  12.0157380  43.8532756  54.7989924  11.7699520
  52.4775532  60.4665972  13.9774602  52.4665409  61.3490688  13.6068535
  51.6092912  60.1137523  13.7829139  43.9858029  69.6146041  18.3377442
  44.6986001  70.2493506  18.2653343  43.4948057  69.7109907  17.5217444
  45.7075556  63.5197294   9.9094734  44.7731834  63.6398757   9.7399438
  45.8852224  62.6169761   9.6454743  41.2080744  56.9042990  12.0627995
  40.8378531  56.3514030  12.7508900  41.7039836  56.3001123  11.5102995
  49.0948107  59.3614613  10.4444768  49.5608559  60.1942605  10.3705070
  49.5455607  58.8959595  11.1490026  39.0369942  67.3640485  19.1583013
  39.7379402  67.9976968  19.3112407  38.5665057  67.7055216  18.3978652
  47.1624338  65.7058435   7.4430920  47.4384182  65.5915029   8.3524794
  46.2928837  65.3075920   7.4043093  47.0664770  51.7295200  14.4835669
  46.1527849  51.9599427  14.6517876  47.4957871  51.8133644  15.3349701
  46.8371228  59.9185092  16.9835563  46.1842678  60.1661000  16.3288016
  47.2151608  59.1049231  16.6498040  43.7978402  69.9544786  11.0863733
  43.9800797  69.1366441  11.5491486  44.6211388  70.1712478  10.6488623
  44.1320568  68.8812971   8.3478782  44.6608334  68.3705425   7.7348944
  44.3948787  68.5655501   9.2124315  34.6337660  66.8976840  16.0914115
  35.2191097  66.1520528  16.2242020  34.4362499  67.2080797  16.9750779
  37.4876315  69.9328087  11.1076558  36.8186691  70.4174215  10.6240598
  37.3489185  70.1797308  12.0219936  29.2255315  59.4682440  14.8118559
  29.2639415  58.9346031  15.6055677  28.7195608  58.9417646  14.1929536
  41.6281584  71.9671831  17.7059216  42.1799892  72.1303452  18.4708301
  41.9687778  72.5576269  17.0339241  36.6046077  54.3146981  18.3081101
  36.6687404  55.1761812  17.8958499  36.5413198  53.7020982  17.5753459
  46.4792458  66.7933088  23.5607871  47.0232362  67.4063047  23.0662825
  45.8979303  67.3512667  24.0774884  32.8563893  58.1946542   7.8872490
  33.1517334  57.2857221   7.8339544  31.9551928  58.1734282   7.5653492
  44.7649971  69.9153806  14.6922898  44.6401111  69.1143546  14.1833844
  45.4229062  70.4100000  14.2036868  36.3858140  56.2702539  13.8700039
  35.6644725  56.8838507  13.7307512  37.1751395  56.8060304  13.7916685
  46.8284880  67.7162826  16.3202448  45.8815215  67.5968178  16.2480775
  47.1767653  66.8285325  16.4028710  34.5851734  55.8760640   8.0111815
  34.2564440  54.9958019   7.8286921  34.9391105  55.8208309   8.8988204
  43.8331313  67.5115543  12.5206801  43.6856275  66.5832250  12.7014371
  44.6584807  67.5335633  12.0363876  37.6993557  56.1633610   8.3787293
  38.0389630  56.6919531   7.6565901  38.1465678  56.5014016   9.1545859
  47.4365435  68.3344101  13.6071673  48.3611982  68.1286963  13.4696125
  47.2680738  68.0860503  14.5161015  40.3936998  54.5470661  17.8290361
  40.0533819  53.7478474  18.2311041  39.6876004  54.8472371  17.2567194
  41.0453470  51.6319973  16.2817684  41.8679539  51.1580451  16.1596574
  41.2891534  52.4110457  16.7816370  39.6861704  54.6608231   6.5780586
  40.4070067  55.0389484   6.0744302  39.0627009  55.3797108   6.6815564
  43.8292827  55.3653380   7.5138918  44.0456442  56.2478018   7.2127746
  43.3486894  54.9739594   6.7844560  38.5692049  58.3239094  14.0909662
  38.4236629  58.6379397  14.9833944  38.0917252  58.9423994  13.5380561
  40.4288432  55.3141642  14.1390552  40.4150000  54.4182735  13.8022850
  41.1460860  55.3212305  14.7728838  42.2814562  55.7478982  16.1843679
  42.0232340  56.6696052  16.1828010  41.7499603  55.3509416  16.8744144
  47.2260751  68.8529769   8.9633765  47.3997629  68.2876191   8.2107617
  47.7189642  69.6530664   8.7813255  33.0437711  60.8644438  17.0297324
  32.4991179  61.6404246  17.1617598  33.9217061  61.2115242  16.8716445
  39.8325328  54.1956022   9.4078122  39.9541239  53.2672668   9.6069010
  39.5427370  54.2094708   8.4956438  42.7016518  51.8810932  12.5444842
  42.7238215  51.9450265  11.5896822  43.1184577  51.0415441  12.7385348
  53.0800142  61.6166192  10.5824065  53.5231288  60.8673517  10.1843188
  52.2026653  61.6076328  10.1997797  48.2135924  68.1696533   6.0630663
  48.9086828  68.7903226   6.2817978  48.5559074  67.3191884   6.3383041
  33.8303733  59.9914334  19.9227481  33.0885469  60.1396970  20.5092111
  33.5096477  60.2522600  19.0594230  50.1127347  65.6196239   7.5917994
  50.6378671  65.9583512   6.8667314  50.0249699  64.6843254   7.4081129
  41.7747395  69.5330312  19.7207871  42.0834522  69.2879459  20.5930570
  42.5722877  69.7376951  19.2326741  41.7968007  71.6868222  11.9513247
  41.3572998  71.1944601  12.6446104  42.5476124  71.1441190  11.7105322
  34.2760346  67.8779763  11.9537875  35.1018366  67.5783535  11.5736519
  33.9254398  67.1087385  12.4027664  39.2441880  67.2306231  14.0235549
  38.6221889  66.5676936  13.7237777  39.9146746  67.2567363  13.3409197
  32.4768951  65.7966089  12.9126809  31.6400860  65.3688264  12.7310810
  32.4492597  65.9898533  13.8497600  38.8055386  65.7810155   7.4994009
  38.9543507  66.4645619   6.8460682  39.6121830  65.7615245   8.0143465
  52.6233007  63.0871430  12.9746512  53.4579898  63.5261234  13.1384073
  52.7592136  62.6110083  12.1554758  36.5608019  61.8075332   8.5055078
  36.3154061  60.9037662   8.7035288  36.7303934  61.8092483   7.5634556
  44.2504729  52.6799009  17.8879834  44.7686673  53.4160035  17.5626322
  43.8959862  52.9863002  18.7226593  35.8303667  57.5403690   6.0041240
  35.1372912  57.6148045   5.3481276  35.5855419  56.7764033   6.5262757
  44.5017324  49.0999291  13.4080730  44.7819077  48.4322480  14.0341157
  45.2867930  49.2928387  12.8955394  42.3050792  68.2758285   4.9705757
  41.7324759  68.8948472   4.5176229  42.8783586  68.8257647   5.5045679
  48.3726182  57.5216925  17.1552306  49.3243605  57.6215023  17.1764530
  48.2029632  56.7295194  17.6650390  46.3940561  54.6072508  17.3411706
  45.7990493  54.8877521  16.6458195  46.1090258  55.0966409  18.1128448
  45.5248052  68.5595435   6.1014339  46.4578725  68.4940997   6.3047215
  45.4371265  69.3951702   5.6428872  48.1536068  67.8761305   3.0618287
  48.0749700  67.5421169   3.9554044  48.9745735  68.3683073   3.0609759
  50.8514260  60.7423045  16.2694605  50.8190580  59.8039045  16.4554289
  51.4614883  60.8207081  15.5360430  42.6897591  59.6119098   2.3121809
  43.6356695  59.4825306   2.3810227  42.3111835  58.8733760   2.7891237
  51.0008748  57.5334088  16.3152888  50.4847797  56.7492545  16.1282817
  51.8848697  57.2052805  16.4799408  48.6619475  51.2775104  12.2748701
  48.4644296  50.9690192  13.1592033  49.2719181  52.0036743  12.4046631
  56.6690810  61.8039052  15.4100642  57.3994198  61.5424340  15.9708345
  56.0597755  61.0667774  15.4502710  54.7506107  59.9446914  16.0075093
  54.0239270  59.8102879  15.3991585  54.3353394  60.2523743  16.8131811
  42.5736283  63.6636844  23.7722466  43.4939293  63.8415443  23.9662513
  42.5385866  62.7192889  23.6202165  40.8740508  57.5369074   2.2476694
  39.9671963  57.2402187   2.3239408  41.1516489  57.2398892   1.3810981
  31.7918448  58.8575438  12.6975741  31.4721232  58.0040746  12.4050115
  31.2451876  59.0724016  13.4533708  35.5698356  61.5737879  16.4145247
  35.7884365  62.5054986  16.4333281  35.9824129  61.2145853  17.2000051
  42.4902573  52.0805964   8.4020936  41.6803302  51.7353049   8.7776182
  43.1786990  51.7713508   8.9908547  44.4193122  51.1584011  10.0245232
  44.9724160  51.5779464  10.6835255  44.6563208  50.2319759  10.0668188
  39.6439292  54.3956009   2.3888674  40.5058456  54.7210908   2.6484491
  39.8289636  53.6087505   1.8761739  31.6606708  62.4778349  14.6668862
  30.9670179  62.0632302  14.1538817  32.4079699  62.5198886  14.0702281
  47.7971929  53.2684536   9.5323897  47.2170598  53.9269340   9.1501949
  47.5307861  52.4461880   9.1211314  46.2475495  52.6689593  11.7345217
  46.7475274  52.7806128  10.9259536  46.8911103  52.3650646  12.3746025
  40.3057491  60.5768223  24.6213058  39.8224573  61.3768583  24.8276947
  40.3918430  60.5876168  23.6680502  33.5743451  62.4096603  12.5434877
  33.5514139  62.5084290  11.5916760  33.8844087  63.2561754  12.8652043
  36.2330828  64.4672758  16.6581492  37.1874082  64.4356700  16.5911423
  36.0343352  64.0063382  17.4731718  36.8230211  63.0373874  19.2252289
  37.6423100  63.5317953  19.2487127  37.0967018  62.1205842  19.1969857
  46.5796807  55.4284626   8.5880245  45.6922662  55.7134277   8.3700440
  46.9950796  55.2678390   7.7407522  49.9311343  55.4531147  12.3034584
  50.7071733  55.9427600  12.5759201  49.2059477  55.8789201  12.7606454
  52.3683902  56.1658766  13.3608525  52.9628392  55.9254502  12.6501833
  52.4410485  55.4465897  13.9882061  34.5881057  70.0092377  13.6751690
  34.4535525  69.2492778  13.1089688  34.1713120  70.7333277  13.2080478
  45.7240020  65.1929301   2.6828265  46.4275870  65.3979303   3.2985921
  45.0002669  65.7606063   2.9477348  46.5537831  60.9439162   8.8030535
  46.4973032  61.4007714   7.9638167  47.1066173  60.1829847   8.6253378
  50.3642636  56.7328894   9.6280655  50.1079571  56.3325530  10.4588862
  49.7395504  57.4472688   9.5030794  54.6754974  59.4724967  12.1351946
  54.1154532  59.5418157  12.9083508  54.0698478  59.2965952  11.4151442
  37.7450183  70.9061694  13.8870132  37.6282567  71.8507127  13.7848823
  36.9242629  70.6035256  14.2755931  47.6326718  65.6311830   4.7326725
  48.4672322  65.1993029   4.5504200  47.4711061  65.4593844   5.6603619
  47.2872610  62.1343943   6.0983064  47.2321414  61.9688215   5.1571508
  46.6618665  62.8419976   6.2545254  32.0765125  57.3712008  19.9244486
  32.7223988  56.8610962  20.4131712  31.8682276  58.1080689  20.4987912
  40.5968735  51.6352052   5.6768383  40.5847405  52.5793892   5.8336654
  41.4892157  51.4522198   5.3827844  38.7704697  71.5589956  17.1026061
  39.6731944  71.5913566  17.4192556  38.5442067  70.6290407  17.1172396
  40.5258299  70.3120943  13.7636139  39.5753930  70.3122804  13.6500512
  40.8290785  69.5653677  13.2472174  44.4120855  48.2294829   9.9314319
  43.6453251  47.6753316  10.0771002  44.8231560  48.3016698  10.7928471
  56.2610993  76.1481481  14.8281902  56.8989403  76.0288229  14.1245242
  56.1431836  77.0962325  14.8869854  53.0700699  76.1008909  14.7643426
  52.7319211  75.9849974  13.8763961  53.9390467  75.7000074  14.7444433
  48.9287515  77.9544386  10.7540317  48.3652380  77.8634323   9.9856605
  48.8139910  77.1344290  11.2342810  53.5520482  77.2543761  20.7229632
  53.5409123  76.8596559  19.8510136  53.7141122  76.5209834  21.3163403
  46.4751947  79.4495577  13.5924538  47.2673239  79.1086402  13.1770837
  46.7148597  79.5590552  14.5126691  54.5087073  81.6215353   6.0654782
  53.8575053  82.2069434   5.6788796  55.3031436  82.1521548   6.1249820
  48.4342701  78.7104491   6.4641917  49.2073577  78.1633478   6.3254792
  48.7868099  79.5748740   6.6756378  50.2727743  80.0380873  19.6708816
  49.9817609  80.9426504  19.5555482  50.9084728  80.0797400  20.3852885
  51.1983950  77.4157721  16.2610176  51.7947522  77.1913744  15.5467138
  51.2558922  76.6742467  16.8635623  50.7708978  74.8697157   4.0960367
  51.0234499  74.3478678   3.3343830  49.8333538  74.7063302   4.1987050
  55.8152261  73.8732935  11.9035110  56.6015350  73.4552358  11.5525527
  56.0790966  74.7779027  12.0716758  55.9862339  79.3105785   6.6023767
  55.3508172  79.3840412   7.3144671  55.6559745  79.8999384   5.9242846
  61.2160688  73.8108168  12.8068088  61.9485860  73.2407385  13.0405918
  60.4600044  73.4229769  13.2474594  50.4905267  76.7725263   6.2984741
  50.3741525  76.0970166   6.9665826  50.6007527  76.2857637   5.4816895
  52.8336808  76.2335410  10.0031431  52.4695015  75.7066031  10.7144352
  53.6903924  75.8433879   9.8297916  58.7386109  67.5229742  17.2662697
  58.4069434  68.3925153  17.0423912  58.1431722  67.2066026  17.9456727
  52.4742295  71.2625309   4.9992779  52.6416697  72.1305546   5.3663250
  52.2839464  71.4252591   4.0754068  55.2317628  79.7242288  16.6658610
  54.9318351  80.6267327  16.5574417  54.8868688  79.4574472  17.5179762
  48.6830110  76.1756085  12.6995314  47.7580606  76.0432299  12.9073006
  48.9314523  76.9550304  13.1965256  58.6314772  72.2424828  14.3456047
  57.7231649  72.1740237  14.0514808  58.5802368  72.7196773  15.1737872
  52.4531516  73.7182967   5.9839446  52.3331141  74.1640018   6.8224926
  51.7584104  74.0668285   5.4252984  46.0438921  75.8189359  13.5339103
  46.1731302  76.0723838  14.4478515  45.3636372  76.4117067  13.2143758
  50.2138408  86.4886609   9.6329577  50.1362438  87.4394434   9.7118058
  49.6100052  86.1432481  10.2904504  52.7055638  73.6614474  22.2890944
  51.9288972  74.2208394  22.2793809  53.3446201  74.1471257  22.8105814
  60.4976418  70.4441267  16.1233921  59.8550799  70.7373800  15.4773715
  59.9931347  70.3294187  16.9287117  58.1516582  74.1904440   6.8119780
  59.0634438  74.4231827   6.6367478  57.6426229  74.7741484   6.2494859
  50.9602010  76.4699927  21.8508911  51.7016695  77.0084971  21.5743735
  50.2538996  77.0966216  22.0080463  56.4357350  78.6129068  20.4481073
  56.8440706  78.1711478  19.7035705  55.7134611  78.0381695  20.7015266
  52.7888420  73.5501675  17.8214630  53.6349615  73.9741088  17.9649279
  52.7287057  72.8935299  18.5153193  56.7586164  79.1730259  14.2033362
  56.1295027  79.3375973  13.5009429  56.3711827  79.5871868  14.9744326
  60.6375396  80.1084696  11.5577725  59.9526434  80.4883598  11.0074759
  60.7219246  80.7180023  12.2909673  57.8926328  77.7544655  18.1573069
  58.1043223  78.3976415  17.4807450  57.8456076  76.9206972  17.6894999
  55.4952557  70.3662476  15.0609641  54.6337036  70.6643730  15.3526379
  55.5214992  70.5832875  14.1290674  52.3114126  78.9104667  11.4683447
  52.7752472  79.1892370  10.6788069  52.0470924  78.0088111  11.2856537
  49.2038207  78.4576148  14.4063210  49.7739564  78.8863417  13.7680694
  49.7946319  78.1758733  15.1047396  51.2483012  75.0327819   8.2773012
  51.9507056  75.4848863   8.7446938  50.9163641  74.3911638   8.9052905
  49.6963374  73.6239576  22.6524221  49.0662034  74.3055856  22.8859618
  49.5899462  73.5122657  21.7077359  44.9908346  73.2911372  13.5790145
  44.2007400  73.5468900  13.1030256  45.4819594  74.1059709  13.6842186
  59.0072156  80.6316611  16.3295426  59.8289600  80.2296798  16.0478108
  59.0034559  80.5284845  17.2811542  46.9423092  73.6555951  10.5373622
  46.1454255  73.7674645  11.0557118  46.7148684  73.9942603   9.6714513
  52.7728759  80.1800654  18.4856137  52.8373192  80.6421061  19.3214309
  52.0639683  79.5498019  18.6138447  43.2746049  73.5441862  16.0105136
  43.5254088  74.4288872  16.2762712  43.8105598  73.3646464  15.2380228
  67.0978149  76.9755359  12.6780398  66.3441857  76.4062757  12.5224402
  67.2325690  76.9418024  13.6251032  52.4876777  81.8468762   8.3535117
  52.3522452  82.6920297   8.7819965  53.0286589  82.0488039   7.5901051
  45.9406174  79.3644200   8.9263042  46.4530695  80.1587450   9.0768607
  46.5928887  78.6670490   8.8596644  47.7501059  82.4809956  11.0085795
  47.9267687  83.4027921  10.8206779  48.5457893  82.1668375  11.4380175
  47.0353416  74.5274588  20.8847958  46.9206931  73.6259845  21.1855057
  46.1797933  74.7738285  20.5332775  54.1145253  82.4692328  22.4835459
  53.6709108  81.6828707  22.1656364  54.7762467  82.6571479  21.8179350
  48.8732375  83.9988130  17.0096138  49.4239800  83.8705193  16.2373132
  48.0343850  84.2983019  16.6591030  56.2126491  82.7495128  20.5116860
  56.1944967  83.5704009  20.0197130  57.1346411  82.6249203  20.7367002
  52.6699546  80.2639258  21.3540369  53.2027882  79.5027546  21.1239677
  52.1413627  79.9712909  22.0964523  55.8369241  65.3699323  16.8834010
  55.4933510  66.2600965  16.8073121  56.2048203  65.1800981  16.0203595
  43.9055091  77.6932854   9.7022613  44.7430313  78.1029862   9.4856320
  44.0833359  76.7532296   9.6722807  55.8019523  75.3607935   5.3906446
  55.2866147  76.1312539   5.6294833  55.5296832  74.6873071   6.0139507
  53.3866634  70.2057635  10.4491684  52.5308231  69.8164486  10.2697323
  53.7993586  70.2849596   9.5891469  54.9165781  67.7403979  14.8483244
  54.4130577  67.7034114  14.0351049  55.2096388  68.6496721  14.9079900
  51.1608667  67.8242708  13.8549425  52.0261664  67.6285517  13.4955315
  51.2286176  67.5953060  14.7818782  60.7753797  78.1140289   7.3259619
  59.9983240  77.7751449   6.8814781  61.4545278  78.1192912   6.6514584
  55.5905826  73.2335027   7.2166227  55.2855962  73.5481176   8.0676370
  56.5436269  73.3116447   7.2593560  54.0352258  79.3925250   8.8659181
  53.5073620  78.6578010   8.5532418  53.5339761  80.1699926   8.6199149
  59.0145104  77.5874270  13.9826227  58.3568779  78.2773532  14.0706356
  59.8185504  77.9770702  14.3260213  48.7670986  70.0544916  11.2265792
  49.3414738  69.8320098  10.4938985  49.3541968  70.1233611  11.9794394
  57.8250563  75.9418643  12.0330169  58.3382445  76.5748635  12.5351879
  58.4751787  75.3419839  11.6673529  49.0940573  72.0849377   5.2461678
  48.2577885  72.4224064   5.5670952  48.9545343  71.9498357   4.3088815
  51.0693654  66.9286165   9.9540862  50.4158066  66.6135182   9.3297476
  51.0274128  66.3061906  10.6800685  54.3031394  73.4168099  14.2788509
  53.3853955  73.6383046  14.1210197  54.7191538  73.4914409  13.4200217
  55.0866442  74.8159514   9.4091190  55.8338261  75.3280912   9.0998312
  55.3558031  74.4943567  10.2695583  53.3593092  77.3118055   6.3918144
  52.4504311  77.0277088   6.4890614  53.3888176  77.7317134   5.5321451
  58.5912359  80.9224645  10.1609311  58.1374686  80.0815555  10.2174502
  57.9606326  81.5586043  10.4984092  57.5345279  71.8516631  11.3909979
  56.7968036  71.3394017  11.7220221  57.7872052  71.4117012  10.5793256
  57.0345299  82.7601141  11.0959130  57.3268273  83.3206198  10.3771495
  57.5443919  83.0529702  11.8512289  57.6356906  64.6292883  11.9851748
  57.9415783  63.7690246  11.6977663  58.3609511  65.2210503  11.7850742
  43.9281262  75.0323569  10.3733346  43.7305662  74.4392930   9.6484413
  43.3727926  74.7275779  11.0909285  51.9077986  74.9246676  12.4927939
  51.9626596  73.9720512  12.4170416  51.0969188  75.0806115  12.9769238
  49.8470346  73.5423735  10.2518318  49.0338211  73.8417906  10.6583510
  50.3429340  73.1479424  10.9692800  51.9978924  83.5381492  12.1852583
  51.9555103  83.7642339  11.2561115  52.9141623  83.3044867  12.3338384
  55.4444558  74.0065560  19.0833212  55.7993945  74.2337033  19.9427678
  56.0916689  74.3383937  18.4610467  61.1742294  77.1283996   9.7882541
  61.0360193  77.3185592   8.8603730  60.8178513  77.8903379  10.2450592
  49.3384421  71.1142091  15.8679553  49.9783800  70.9730850  15.1702516
  48.5061951  70.8276604  15.4918155  61.2011674  79.1960523  14.7993813
  61.6348181  79.1035812  15.6476867  61.9143255  79.1718023  14.1613829
  50.1144725  80.4144521  11.9814545  50.9085323  79.9194842  11.7797120
  49.4036417  79.8862385  11.6182251  54.9339569  82.7962617  16.3326913
  54.9876591  83.3653553  17.1004629  54.0654350  82.9664502  15.9680950
  46.4227488  74.5587603   8.0574298  45.4925076  74.4972059   8.2744260
  46.5184960  74.0363556   7.2610939  46.3413037  71.0842416  10.6452540
  46.6019854  71.9987749  10.5361700  47.1630209  70.6166859  10.7949153
  47.8137962  72.4980173  17.8151364  48.4861016  72.2897535  17.1664013
  46.9867749  72.3002259  17.3756597  62.0627224  79.2384223  17.3326698
  62.2563114  80.1430034  17.5785973  61.9627842  78.7791643  18.1665283
  57.1242332  79.3890966  22.9067579  56.9727839  79.1601518  21.9897662
  57.1147012  80.3461568  22.9198924  53.8927669  76.9622879  17.8913845
  54.8219729  77.1134039  17.7182812  53.4718699  77.0506900  17.0362491
  52.6916001  80.9873543  15.6612383  52.5527086  80.6192328  16.5338321
  51.9030597  81.5021183  15.4896340  54.2421216  80.3655146  13.0501220
  53.9071048  80.3255916  13.9458870  53.7425161  79.6999862  12.5771631
  48.2165460  75.7722776  18.5753802  48.0785258  75.0403015  19.1765341
  49.1270383  75.6831676  18.2937989  50.8447760  75.4842735  18.0637481
  51.5547379  74.8435928  18.0224100  50.8017068  75.7355630  18.9863662
  58.8334539  82.4210089  20.9844060  58.7747085  81.7369309  20.3174643
  59.2354057  83.1629079  20.5324686  49.5576694  72.4707953  19.8833121
  49.0214051  72.0198692  20.5354717  48.9693403  72.6053862  19.1403585
  47.8525238  89.2372003  13.7777779  48.0921836  89.8690527  14.4556798
  47.0094434  88.8860043  14.0643139  48.9678953  71.9296605   2.4459584
  48.0908420  71.8085406   2.0821831  49.4436706  71.1382683   2.1938473
  58.8351946  80.3849673  19.2158040  57.9478725  80.0475595  19.3384439
  59.4050497  79.6532704  19.4526805  40.4881093  76.7173764  12.5401091
  41.1752133  76.4035495  11.9522107  40.3329222  77.6215129  12.2668343
  45.2915816  71.6063961  16.9686115  45.2074004  70.9989631  16.2336525
  44.4698522  72.0972979  16.9695611  52.3653100  85.0451125  16.1819283
  52.2923271  85.8506097  16.6938588  51.9230493  85.2443091  15.3567305
  52.1542879  84.2822895   9.6922105  51.3710401  84.8244575   9.7860329
  52.8535624  84.7996875  10.0916346  55.4639529  70.0917525  12.3356310
  55.9608229  69.3387487  12.0157380  54.6926511  70.1281841  11.7699520
  63.3169287  75.7957890  13.9774602  63.3059163  76.6782606  13.6068535
  62.4486666  75.4429441  13.7829139  54.8251783  84.9437959  18.3377442
  55.5379755  85.5785424  18.2653343  54.3341812  85.0401825  17.5217444
  56.5469310  78.8489212   9.9094734  55.6125589  78.9690674   9.7399438
  56.7245979  77.9461679   9.6454743  52.0474498  72.2334908  12.0627995
  51.6772286  71.6805948  12.7508900  52.5433591  71.6293041  11.5102995
  59.9341861  74.6906531  10.4444768  60.4002314  75.5234523  10.3705070
  60.3849362  74.2251513  11.1490026  49.8763697  82.6932403  19.1583013
  50.5773156  83.3268886  19.3112407  49.4058812  83.0347134  18.3978652
  58.0018093  81.0350352   7.4430920  58.2777936  80.9206947   8.3524794
  57.1322591  80.6367837   7.4043093  57.9058524  67.0587118  14.4835669
  56.9921604  67.2891345  14.6517876  58.3351626  67.1425562  15.3349701
  57.6764983  75.2477010  16.9835563  57.0236433  75.4952917  16.3288016
  58.0545363  74.4341148  16.6498040  54.6372157  85.2836703  11.0863733
  54.8194551  84.4658359  11.5491486  55.4605143  85.5004395  10.6488623
  54.9714322  84.2104888   8.3478782  55.5002088  83.6997343   7.7348944
  55.2342542  83.8947419   9.2124315  53.7252556  75.9896821  23.4701600
  53.0493193  75.8890950  24.1403975  54.5480190  75.8336035  23.9337597
  45.4731415  82.2268758  16.0914115  46.0584852  81.4812446  16.2242020
  45.2756253  82.5372714  16.9750779  48.3270070  85.2620005  11.1076558
  47.6580445  85.7466133  10.6240598  48.1882940  85.5089225  12.0219936
  40.0649069  74.7974358  14.8118559  40.1033169  74.2637949  15.6055677
  39.5589362  74.2709563  14.1929536  52.4675339  87.2963749  17.7059216
  53.0193647  87.4595370  18.4708301  52.8081532  87.8868186  17.0339241
  47.4439832  69.6438898  18.3081101  47.5081158  70.5053729  17.8958499
  47.3806952  69.0312900  17.5753459  46.9192104  71.7162031  21.9554135
  47.5464143  71.3339108  22.5691659  46.0620023  71.4976233  22.3209828
  57.3186213  82.1225006  23.5607871  57.8626117  82.7354964  23.0662825
  56.7373058  82.6804584  24.0774884  43.6957647  73.5238460   7.8872490
  43.9911088  72.6149138   7.8339544  42.7945683  73.5026199   7.5653492
  55.6043726  85.2445724  14.6922898  55.4794865  84.4435464  14.1833844
  56.2622817  85.7391917  14.2036868  47.2251894  71.5994457  13.8700039
  46.5038480  72.2130424  13.7307512  48.0145150  72.1352221  13.7916685
  57.6678634  83.0454744  16.3202448  56.7208970  82.9260095  16.2480775
  58.0161407  82.1577242  16.4028710  45.4245489  71.2052558   8.0111815
  45.0958195  70.3249937   7.8286921  45.7784859  71.1500226   8.8988204
  54.6725068  82.8407460  12.5206801  54.5250030  81.9124168  12.7014371
  55.4978561  82.8627551  12.0363876  48.5387312  71.4925527   8.3787293
  48.8783384  72.0211449   7.6565901  48.9859432  71.8305934   9.1545859
  58.2759189  83.6636019  13.6071673  59.2005737  83.4578880  13.4696125
  58.1074493  83.4152420  14.5161015  51.2330753  69.8762578  17.8290361
  50.8927573  69.0770391  18.2311041  50.5269759  70.1764289  17.2567194
  51.8847224  66.9611891  16.2817684  52.7073294  66.4872369  16.1596574
  52.1285288  67.7402374  16.7816370  50.5255459  69.9900149   6.5780586
  51.2463821  70.3681402   6.0744302  49.9020763  70.7089026   6.6815564
  54.6686582  70.6945298   7.5138918  54.8850196  71.5769936   7.2127746
  54.1880649  70.3031511   6.7844560  49.4085803  73.6531011  14.0909662
  49.2630384  73.9671314  14.9833944  48.9311007  74.2715912  13.5380561
  51.2682186  70.6433559  14.1390552  51.2543755  69.7474653  13.8022850
  51.9854614  70.6504223  14.7728838  53.1208317  71.0770899  16.1843679
  52.8626095  71.9987970  16.1828010  52.5893357  70.6801334  16.8744144
  43.8831465  76.1936356  17.0297324  43.3384933  76.9696164  17.1617598
  44.7610815  76.5407160  16.8716445  50.6719082  69.5247940   9.4078122
  50.7934993  68.5964586   9.6069010  50.3821124  69.5386625   8.4956438
  53.5410272  67.2102850  12.5444842  53.5631969  67.2742183  11.5896822
  53.9578331  66.3707359  12.7385348  63.9193897  76.9458109  10.5824065
  64.3625043  76.1965435  10.1843188  63.0420407  76.9368246  10.1997797
  44.6697487  75.3206252  19.9227481  43.9279223  75.4688887  20.5092111
  44.3490232  75.5814518  19.0594230  52.6141150  84.8622230  19.7207871
  52.9228276  84.6171377  20.5930570  53.4116632  85.0668869  19.2326741
  52.6361762  87.0160140  11.9513247  52.1966752  86.5236518  12.6446104
  53.3869879  86.4733107  11.7105322  45.1154101  83.2071681  11.9537875
  45.9412121  82.9075452  11.5736519  44.7648153  82.4379303  12.4027664
  50.0835634  82.5598149  14.0235549  49.4615643  81.8968854  13.7237777
  50.7540501  82.5859281  13.3409197  43.3162706  81.1258007  12.9126809
  42.4794614  80.6980181  12.7310810  43.2886351  81.3190450  13.8497600
  60.6415007  81.5821060  22.8969192  59.8510551  81.5645199  22.3573691
  60.4048362  82.1209354  23.6518228  60.7612882  78.4313526  20.2101920
  60.8110887  78.2663534  21.1517443  60.6526806  77.5640786  19.8199801
  49.6449141  81.1102072   7.4994009  49.7937261  81.7937537   6.8460682
  50.4515584  81.0907162   8.0143465  58.0516645  74.4144455  21.5261227
  58.9526507  74.2750919  21.2345225  58.1264619  74.5798909  22.4659405
  62.2631079  80.8510468  20.4543942  61.9715887  81.2140449  21.2907403
  61.6503210  80.1377476  20.2757274  63.4626761  78.4163348  12.9746512
  64.2973653  78.8553152  13.1384073  63.5985890  77.9402001  12.1554758
  60.5118267  75.9743083  18.9224000  60.9872389  76.1670729  18.1142851
  59.5883833  76.0302268  18.6767384  47.4001774  77.1367250   8.5055078
  47.1547816  76.2329580   8.7035288  47.5697689  77.1384400   7.5634556
  46.6697422  72.8695607   6.0041240  45.9766666  72.9439962   5.3481276
  46.4249173  72.1055951   6.5262757  55.3411078  64.4291209  13.4080730
  55.6212832  63.7614398  14.0341157  56.1261685  64.6220304  12.8955394
  59.2119936  72.8508843  17.1552306  60.1637359  72.9506940  17.1764530
  59.0423387  72.0587111  17.6650390  57.2334316  69.9364426  17.3411706
  56.6384248  70.2169439  16.6458195  56.9484013  70.4258327  18.1128448
  61.6908014  76.0714962  16.2694605  61.6584334  75.1330963  16.4554289
  62.3008638  76.1498999  15.5360430  53.5291345  74.9411015   2.3121809
  54.4750450  74.8117223   2.3810227  53.1505590  74.2025677   2.7891237
  61.8402503  72.8626006  16.3152888  61.3241551  72.0784462  16.1282817
  62.7242451  72.5344722  16.4799408  59.5013230  66.6067021  12.2748701
  59.3038051  66.2982110  13.1592033  60.1112935  67.3328660  12.4046631
  67.5084564  77.1330969  15.4100642  68.2387952  76.8716257  15.9708345
  66.8991509  76.3959691  15.4502710  65.5899861  75.2738832  16.0075093
  64.8633025  75.1394797  15.3991585  65.1747148  75.5815660  16.8131811
  53.4130038  78.9928762  23.7722466  54.3333047  79.1707361  23.9662513
  53.3779621  78.0484807  23.6202165  51.7134262  72.8660992   2.2476694
  50.8065718  72.5694104   2.3239408  51.9910243  72.5690810   1.3810981
  42.6312203  74.1867355  12.6975741  42.3114987  73.3332663  12.4050115
  42.0845631  74.4015933  13.4533708  46.4092110  76.9029796  16.4145247
  46.6278120  77.8346904  16.4333281  46.8217884  76.5437771  17.2000051
  53.3296328  67.4097881   8.4020936  52.5197056  67.0644966   8.7776182
  54.0180745  67.1005425   8.9908547  55.2586876  66.4875928  10.0245232
  55.8117915  66.9071382  10.6835255  55.4956963  65.5611676  10.0668188
  51.2819975  72.4763002  25.8047996  51.1816702  73.4257359  25.7360087
  51.0641517  72.1481241  24.9324066  50.4833047  69.7247927   2.3888674
  51.3452211  70.0502825   2.6484491  50.6683391  68.9379423   1.8761739
  42.5000463  77.8070267  14.6668862  41.8063934  77.3924219  14.1538817
  43.2473454  77.8490803  14.0702281  58.6365683  68.5976453   9.5323897
  58.0564352  69.2561257   9.1501949  58.3701616  67.7753798   9.1211314
  57.0869250  67.9981511  11.7345217  57.5869028  68.1098046  10.9259536
  57.7304858  67.6942564  12.3746025  51.1451245  75.9060141  24.6213058
  50.6618327  76.7060501  24.8276947  51.2312185  75.9168086  23.6680502
  44.4137205  77.7388520  12.5434877  44.3907893  77.8376208  11.5916760
  44.7237842  78.5853671  12.8652043  47.0724583  79.7964675  16.6581492
  48.0267837  79.7648618  16.5911423  46.8737107  79.3355299  17.4731718
  47.6623965  78.3665792  19.2252289  48.4816854  78.8609870  19.2487127
  47.9360773  77.4497760  19.1969857  57.4190561  70.7576544   8.5880245
  56.5316416  71.0426194   8.3700440  57.8344550  70.5970307   7.7407522
  60.7705097  70.7823065  12.3034584  61.5465488  71.2719517  12.5759201
  60.0453232  71.2081119  12.7606454  63.2077656  71.4950684  13.3608525
  63.8022147  71.2546420  12.6501833  63.2804240  70.7757815  13.9882061
  45.4274812  85.3384295  13.6751690  45.2929280  84.5784696  13.1089688
  45.0106874  86.0625195  13.2080478  57.3931585  76.2731080   8.8030535
  57.3366786  76.7299631   7.9638167  57.9459928  75.5121764   8.6253378
  61.2036391  72.0620812   9.6280655  60.9473325  71.6617447  10.4588862
  60.5789259  72.7764606   9.5030794  65.5148729  74.8016885  12.1351946
  64.9548287  74.8710074  12.9083508  64.9092232  74.6257870  11.4151442
  48.5843938  86.2353612  13.8870132  48.4676322  87.1799044  13.7848823
  47.7636384  85.9327174  14.2755931  58.1266364  77.4635861   6.0983064
  58.0715168  77.2980132   5.1571508  57.5012420  78.1711894   6.2545254
  42.9158879  72.7003925  19.9244486  43.5617743  72.1902879  20.4131712
  42.7076030  73.4372607  20.4987912  55.4412272  79.7684773  25.4236627
  56.3103431  79.9425425  25.0623262  54.9619023  80.5879190  25.3012356
  51.4362490  66.9643970   5.6768383  51.4241160  67.9085810   5.8336654
  52.3285912  66.7814115   5.3827844  49.6098452  86.8881874  17.1026061
  50.5125698  86.9205484  17.4192556  49.3835822  85.9582325  17.1172396
  51.3652054  85.6412860  13.7636139  50.4147685  85.6414722  13.6500512
  51.6684540  84.8945595  13.2472174  55.2514609  63.5586747   9.9314319
  54.4847005  63.0045233  10.0771002  55.6625314  63.6308615  10.7928471
  47.2556370  69.8471542  24.0219501  48.1187832  69.4908347  24.2322825
  46.6821781  69.5085437  24.7094905  64.3914237  92.5835679  20.7229632
  64.3802877  92.1888477  19.8510136  64.5534876  91.8501751  21.3163403
  61.1121498  95.3672790  19.6708816  60.8211364  96.2718421  19.5555482
  61.7478482  95.4089318  20.3852885  62.0377705  92.7449639  16.2610176
  62.6341277  92.5205661  15.5467138  62.0952676  92.0034384  16.8635623
  69.5779863  82.8521660  17.2662697  69.2463188  83.7217071  17.0423912
  68.9825477  82.5357944  17.9456727  56.8832675  91.1481276  13.5339103
  57.0125056  91.4015755  14.4478515  56.2030127  91.7408984  13.2143758
  63.5449392  88.9906392  22.2890944  62.7682726  89.5500312  22.2793809
  64.1839955  89.4763175  22.8105814  71.3370173  85.7733185  16.1233921
  70.6944553  86.0665718  15.4773715  70.8325101  85.6586105  16.9287117
  61.7995765  91.7991845  21.8508911  62.5410449  92.3376889  21.5743735
  61.0932750  92.4258134  22.0080463  67.2751104  93.9420986  20.4481073
  67.6834460  93.5003396  19.7035705  66.5528366  93.3673613  20.7015266
  63.6282174  88.8793592  17.8214630  64.4743370  89.3033006  17.9649279
  63.5680812  88.2227217  18.5153193  66.7781620  86.5397961  19.4795803
  66.5342552  87.2940021  18.9430079  67.0541550  86.9183308  20.3143050
  66.3346311  85.6954394  15.0609641  65.4730790  85.9935647  15.3526379
  66.3608746  85.9124793  14.1290674  60.5357128  88.9531493  22.6524221
  59.9055789  89.6347774  22.8859618  60.4293216  88.8414575  21.7077359
  55.8302101  88.6203289  13.5790145  55.0401155  88.8760818  13.1030256
  56.3213348  89.4351627  13.6842186  63.6122514  95.5092572  18.4856137
  63.6766946  95.9712979  19.3214309  62.9033438  94.8789937  18.6138447
  54.1139804  88.8733780  16.0105136  54.3647842  89.7580790  16.2762712
  54.6499352  88.6938381  15.2380228  59.8137871  83.2552259  25.0149472
  59.4204817  82.7018458  25.6897116  60.6304011  83.5662838  25.4055990
  62.7305832  84.6710138  22.6069729  63.4715545  85.2717291  22.5274191
  62.9623755  83.9287776  22.0487771  64.9539008  97.7984246  22.4835459
  64.5102862  97.0120624  22.1656364  65.6156221  97.9863396  21.8179350
  63.5093300  95.5931175  21.3540369  64.0421637  94.8319463  21.1239677
  62.9807381  95.3004827  22.0964523  66.6762995  80.6991241  16.8834010
  66.3327264  81.5892883  16.8073121  67.0441958  80.5092899  16.0203595
  65.7559535  83.0695896  14.8483244  65.2524331  83.0326031  14.0351049
  66.0490142  83.9788639  14.9079900  62.0002421  83.1534626  13.8549425
  62.8655418  82.9577435  13.4955315  62.0679930  82.9244978  14.7818782
  59.6064740  85.3836834  11.2265792  60.1808492  85.1612015  10.4938985
  60.1935723  85.4525528  11.9794394  61.9087408  82.2578083   9.9540862
  61.2551820  81.9427100   9.3297476  61.8667882  81.6353823  10.6800685
  68.4750661  79.9584800  11.9851748  68.7809537  79.0982164  11.6977663
  69.2003266  80.5502421  11.7850742  66.2838312  89.3357478  19.0833212
  66.6387700  89.5628951  19.9427678  66.9310443  89.6675854  18.4610467
  60.1778175  86.4434009  15.8679553  60.8177554  86.3022768  15.1702516
  59.3455706  86.1568522  15.4918155  57.1806792  86.4134334  10.6452540
  57.4413609  87.3279667  10.5361700  58.0023964  85.9458776  10.7949153
  58.6531717  87.8272091  17.8151364  59.3254770  87.6189453  17.1664013
  57.8261503  87.6294177  17.3756597  64.5557289  84.4534032  19.8317025
  63.9085204  85.1523981  19.7381502  65.3258304  84.8870176  20.1993273
  67.9636087  94.7182884  22.9067579  67.8121593  94.4893436  21.9897662
  67.9540766  95.6753485  22.9198924  64.7321423  92.2914797  17.8913845
  65.6613483  92.4425956  17.7182812  64.3112453  92.3798817  17.0362491
  59.0559214  91.1014694  18.5753802  58.9179012  90.3694933  19.1765341
  59.9664138  91.0123594  18.2937989  61.6841515  90.8134653  18.0637481
  62.3941133  90.1727845  18.0224100  61.6410823  91.0647548  18.9863662
  60.3970449  87.7999871  19.8833121  59.8607806  87.3490609  20.5354717
  59.8087157  87.9345780  19.1403585  51.3274848  92.0465682  12.5401091
  52.0145888  91.7327412  11.9522107  51.1722977  92.9507047  12.2668343
  56.1309570  86.9355879  16.9686115  56.0467759  86.3281548  16.2336525
  55.3092276  87.4264897  16.9695611  60.7157451  98.0224320  19.1583013
  61.4166911  98.6560803  19.3112407  60.2452566  98.3639052  18.3978652
  68.7452279  82.3879036  14.4835669  67.8315358  82.6183263  14.6517876
  69.1745380  82.4717480  15.3349701  68.5158737  90.5768928  16.9835563
  67.8630187  90.8244835  16.3288016  68.8939117  89.7633066  16.6498040
  64.5646310  91.3188739  23.4701600  63.8886947  91.2182868  24.1403975
  65.3873944  91.1627953  23.9337597  56.3125169  97.5560675  16.0914115
  56.8978606  96.8104363  16.2242020  56.1150008  97.8664632  16.9750779
  50.9042824  90.1266276  14.8118559  50.9426923  89.5929866  15.6055677
  50.3983117  89.6001481  14.1929536  58.2833586  84.9730816  18.3081101
  58.3474913  85.8345647  17.8958499  58.2200707  84.3604818  17.5753459
  57.7585859  87.0453949  21.9554135  58.3857898  86.6631026  22.5691659
  56.9013778  86.8268150  22.3209828  68.1579967  97.4516924  23.5607871
  68.7019871  98.0646882  23.0662825  67.5766812  98.0096502  24.0774884
  58.0645649  86.9286374  13.8700039  57.3432234  87.5422342  13.7307512
  58.8538904  87.4644139  13.7916685  60.8671962  84.2640801  20.1440690
  61.3906364  84.5103097  20.9067000  60.6484295  85.0960836  19.7243828
  62.0724507  85.2054496  17.8290361  61.7321327  84.4062309  18.2311041
  61.3663513  85.5056207  17.2567194  62.7240979  82.2903808  16.2817684
  63.5467048  81.8164286  16.1596574  62.9679042  83.0694292  16.7816370
  60.2479558  88.9822929  14.0909662  60.1024138  89.2963232  14.9833944
  59.7704761  89.6007829  13.5380561  62.1075941  85.9725477  14.1390552
  62.0937509  85.0766570  13.8022850  62.8248369  85.9796141  14.7728838
  63.9602071  86.4062817  16.1843679  63.7019849  87.3279888  16.1828010
  63.4287112  86.0093252  16.8744144  54.7225220  91.5228273  17.0297324
  54.1778688  92.2988081  17.1617598  55.6004570  91.8699078  16.8716445
  64.3804027  82.5394768  12.5444842  64.4025724  82.6034101  11.5896822
  64.7972086  81.6999276  12.7385348  55.5091242  90.6498170  19.9227481
  54.7672978  90.7980805  20.5092111  55.1883986  90.9106435  19.0594230
  60.9953916  86.3671855  23.6168055  61.0442072  87.2433977  23.2345824
  61.5376430  85.8249248  23.0439698  71.4808762  96.9112978  22.8969192
  70.6904305  96.8937117  22.3573691  71.2442116  97.4501271  23.6518228
  71.6006637  93.7605444  20.2101920  71.6504642  93.5955452  21.1517443
  71.4920560  92.8932703  19.8199801  68.8910399  89.7436372  21.5261227
  69.7920262  89.6042837  21.2345225  68.9658374  89.9090827  22.4659405
  63.2253205  87.1203227  20.3714413  62.3556514  87.4136793  20.0997002
  63.4612685  87.7043672  21.0921677  65.9292238  83.3382844  17.8879834
  66.4474182  84.0743871  17.5626322  65.5747371  83.6446837  18.7226593
  66.1804833  79.7583126  13.4080730  66.4606586  79.0906315  14.0341157
  66.9655439  79.9512222  12.8955394  70.0513691  88.1800760  17.1552306
  71.0031114  88.2798858  17.1764530  69.8817141  87.3879029  17.6650390
  68.0728070  85.2656344  17.3411706  67.4778002  85.5461356  16.6458195
  67.7877767  85.7550245  18.1128448  64.2523792  94.3220679  23.7722466
  65.1726802  94.4999278  23.9662513  64.2173375  93.3776725  23.6202165
  53.4705957  89.5159273  12.6975741  53.1508741  88.6624581  12.4050115
  52.9239385  89.7307851  13.4533708  57.2485865  92.2321714  16.4145247
  57.4671874  93.1638822  16.4333281  57.6611638  91.8729688  17.2000051
  62.1213730  87.8054920  25.8047996  62.0210457  88.7549277  25.7360087
  61.9035272  87.4773159  24.9324066  53.3394217  93.1362184  14.6668862
  52.6457688  92.7216137  14.1538817  54.0867208  93.1782721  14.0702281
  61.9845000  91.2352058  24.6213058  61.5012082  92.0352419  24.8276947
  62.0705939  91.2460003  23.6680502  57.9118337  95.1256593  16.6581492
  58.8661591  95.0940535  16.5911423  57.7130861  94.6647217  17.4731718
  58.5017720  93.6957709  19.2252289  59.3210609  94.1901788  19.2487127
  58.7754527  92.7789677  19.1969857  53.7552634  88.0295843  19.9244486
  54.4011497  87.5194797  20.4131712  53.5469785  88.7664525  20.4987912
  66.2806026  95.0976691  25.4236627  67.1497186  95.2717343  25.0623262
  65.8012777  95.9171107  25.3012356  66.0908364  78.8878664   9.9314319
  65.3240760  78.3337151  10.0771002  66.5019069  78.9600533  10.7928471
  58.0950125  85.1763460  24.0219501  58.9581586  84.8200265  24.2322825
  57.5215535  84.8377355  24.7094905  70.6531626  98.5844177  25.0149472
  70.2598571  98.0310375  25.6897116  71.4697766  98.8954755  25.4055990
  68.9343879 100.5055378  24.0219501  69.7975341 100.1492183  24.2322825
  68.3609290 100.1669273  24.7094905  35.6398705  28.4703293  10.2853177
  36.1838609  29.0833252   9.7908132  35.0585550  29.0282872  10.8020190
  45.4217240  37.8251686   1.5527208  46.0595649  37.7058433   0.8490548
  45.3038082  38.7732530   1.6115160  42.7126729  38.9313966   7.4474939
  42.7015370  38.5366764   6.5755442  42.8747368  38.1980039   8.0408710
  39.4333990  41.7151078   6.3954123  39.1423856  42.6196709   6.2800789
  40.0690974  41.7567605   7.1098192  40.3590197  39.0927926   2.9855482
  40.9553769  38.8683949   2.2712445  40.4165168  38.3512672   3.5880930
  44.3923875  41.4012493   3.3903916  44.0924598  42.3037532   3.2819723
  44.0474935  41.1344676   4.2425069  41.8661885  35.3384679   9.0136251
  41.0895219  35.8978599   9.0039115  42.5052448  35.8241462   9.5351121
  40.1208257  38.1470132   8.5754218  40.8622941  38.6855176   8.2989041
  39.4145242  38.7736421   8.7325770  45.5963597  40.2899273   7.1726379
  46.0046953  39.8481683   6.4281012  44.8740858  39.7151900   7.4260572
  41.9494667  35.2271880   4.5459936  42.7955862  35.6511293   4.6894585
  41.8893304  34.5705504   5.2398499  45.9192411  40.8500463   0.9278668
  45.2901274  41.0146178   0.2254736  45.5318073  41.2642073   1.6989632
  49.7981643  41.7854901  -1.7176968  49.1132681  42.1653803  -2.2679935
  49.8825492  42.3950228  -0.9845020  45.0994112  32.8876248   6.2041110
  44.8555044  33.6418308   5.6675386  45.3754042  33.2661596   7.0388357
  47.0532575  39.4314860   4.8818375  47.2649470  40.0746620   4.2052757
  47.0062323  38.5977177   4.4140306  38.8569621  35.3009781   9.3769528
  38.2268281  35.9826061   9.6104925  38.7505709  35.1892862   8.4322666
  48.1678403  42.3086816   3.0540733  48.9895846  41.9067003   2.7723414
  48.1640806  42.2055050   4.0056849  41.9335006  41.8570859   5.2101443
  41.9979439  42.3191266   6.0459615  41.2245930  41.2268224   5.3383753
  56.2584396  38.6525564  -0.5974296  55.5048104  38.0832962  -0.7530291
  56.3931937  38.6188229   0.3496339  38.1350363  29.6030546  11.7394779
  37.7417309  29.0496745  12.4142423  38.9516504  29.9141125  12.1301296
  41.0518324  31.0188425   9.3315035  41.7928038  31.6195579   9.2519498
  41.2836247  30.2766063   8.7733078  36.1959662  36.2044793   7.6093265
  36.0813178  35.3030050   7.9100364  35.3404180  36.4508489   7.2578082
  43.2751500  44.1462533   9.2080766  42.8315354  43.3598912   8.8901670
  43.9368714  44.3341684   8.5424657  38.0338621  45.6758335   3.7341444
  38.5846046  45.5475398   2.9618438  37.1950097  45.9753224   3.3836337
  45.3732738  44.4265333   7.2362167  45.3551214  45.2474214   6.7442436
  46.2952658  44.3019408   7.4612308  41.8305792  41.9409462   8.0785675
  42.3634129  41.1797751   7.8484983  41.3019873  41.6483114   8.8209830
  48.1751351  39.2644475   0.7071534  47.5175026  39.9543737   0.7951662
  48.9791750  39.6540907   1.0505520  46.1951545  44.4371346  -2.1795564
  46.4874520  44.9976403  -2.8983198  46.7050166  44.7299907  -1.4242405
  44.6050804  35.6835765   5.8078519  44.9600192  35.9107238   6.6672984
  45.2522936  36.0154142   5.1855774  50.3617921  40.8730728   1.5239119
  50.7954428  40.7806017   2.3722173  51.0749502  40.8488228   0.8859135
  44.0945816  44.4732822   3.0572220  44.1482838  45.0423758   3.8249936
  43.2260597  44.6434707   2.6926257  51.2233470  40.9154428   4.0572005
  51.4169361  41.8200239   4.3031279  51.1234089  40.4561847   4.8910590
  42.8769781  30.8012319   6.5562332  42.2297696  31.5002269   6.4626808
  43.6470797  31.2348463   6.9238580  46.2848579  41.0661171   9.6312885
  46.1334086  40.8371723   8.7142969  46.2753259  42.0231773   9.6444230
  43.0533916  38.6393084   4.6159152  43.9825976  38.7904244   4.4428119
  42.6324946  38.7277105   3.7607798  41.8522247  42.6643748   2.3857689
  41.7133333  42.2962533   3.2583627  41.0636844  43.1791388   2.2141647
  37.3771706  37.4492981   5.2999108  37.2391504  36.7173220   5.9010647
  38.2876630  37.3601881   5.0183296  40.0054007  37.1612940   4.7882788
  40.7153626  36.5206133   4.7469406  39.9623315  37.4125835   5.7108969
  47.9940786  44.0980294   7.7089367  47.9353332  43.4139514   7.0419950
  48.3960304  44.8399284   7.2569993  38.7182941  34.1478158   6.6078427
  38.1820298  33.6968897   7.2600024  38.1299649  34.2824067   5.8648892
  37.0131485  50.9142208   0.5023086  37.2528083  51.5460732   1.1802104
  36.1700681  50.5630248   0.7888445  47.9958193  42.0619878   5.9403347
  47.1084972  41.7245799   6.0629746  48.5656744  41.3302909   6.1772112
  41.5259346  46.7221330   2.9064590  41.4529518  47.5276302   3.4183894
  41.0836740  46.9213296   2.0812611  52.4775534  37.4728095   0.7019908
  52.4665410  38.3552810   0.3313841  51.6092913  37.1199646   0.5074445
  43.9858030  46.6208164   5.0622749  44.6986002  47.2555629   4.9898650
  43.4948059  46.7172030   4.2462750  39.0369943  44.3702608   5.8828319
  39.7379403  45.0039090   6.0357714  38.5665058  44.7117339   5.1223959
  46.8371229  36.9247215   3.7080870  46.1842680  37.1723122   3.0533323
  47.2151609  36.1111353   3.3743347  43.7978403  46.9606908  -2.1890960
  43.9800798  46.1428564  -1.7263208  44.6211389  47.1774600  -2.6266070
  42.8858802  37.6667026  10.1946907  42.2099439  37.5661155  10.8649282
  43.7086436  37.5106240  10.6582904  34.6337662  43.9038963   2.8159422
  35.2191098  43.1582650   2.9487326  34.4362500  44.2142919   3.6996086
  41.6281585  48.9733953   4.4304523  42.1799893  49.1365575   5.1953608
  41.9687779  49.5638391   3.7584548  36.0798351  33.3932236   8.6799442
  36.7070390  33.0109313   9.2936966  35.2226270  33.1746438   9.0455134
  46.4792460  43.7995211  10.2853177  47.0232364  44.4125169   9.7908132
  45.8979305  44.3574789  10.8020190  44.7649973  46.9215929   1.4168205
  44.6401112  46.1205669   0.9079150  45.4229064  47.4162122   0.9282175
  46.8284881  44.7224949   3.0447755  45.8815217  44.6030300   2.9726082
  47.1767654  43.8347447   3.1274017  43.8331314  44.5177665  -0.7547893
  43.6856277  43.5894373  -0.5740323  44.6584808  44.5397756  -1.2390817
  47.4365436  45.3406224   0.3316980  48.3611984  45.1349085   0.1941431
  47.2680740  45.0922625   1.2406322  41.7747397  46.5392435   6.4453177
  42.0834523  46.2941582   7.3175877  42.5722879  46.7439074   5.9572047
  41.7968009  48.6930345  -1.3241446  41.3572999  48.2006723  -0.6308590
  42.5476126  48.1503312  -1.5649371  39.2441881  44.2368354   0.7480855
  38.6221890  43.5739059   0.4483083  39.9146748  44.2629486   0.0654503
  39.3166408  32.7150142  10.3413361  39.3654564  33.5912265   9.9591131
  39.8588923  32.1727535   9.7685005  49.8021254  43.2591265   9.6214499
  49.0116798  43.2415404   9.0818998  49.5654609  43.7979559  10.3763535
  49.9219129  40.1083731   6.9347227  49.9717134  39.9433739   7.8762750
  49.8133052  39.2410990   6.5445108  47.2122891  36.0914659   8.2506534
  48.1132754  35.9521124   7.9590532  47.2870866  36.2569114   9.1904711
  41.5465697  33.4681514   7.0959720  40.6769006  33.7615080   6.8242309
  41.7825177  34.0521959   7.8166984  51.4237326  42.5280673   7.1789249
  51.1322134  42.8910653   8.0152710  50.8109457  41.8147681   7.0002581
  52.6233008  40.0933553  -0.3008181  53.4579900  40.5323357  -0.1370621
  52.7592137  39.6172206  -1.1199935  49.6724514  37.6513288   5.6469307
  50.1478636  37.8440934   4.8388158  48.7490080  37.7072473   5.4012690
  48.3726183  34.5279048   3.8797612  49.3243606  34.6277145   3.9009836
  48.2029634  33.7357316   4.3895697  50.8514261  37.7485167   2.9939912
  50.8190581  36.8101168   3.1799596  51.4614885  37.8269204   2.2605737
  51.0008749  34.5396211   3.0398195  50.4847798  33.7554667   2.8528124
  51.8848698  34.2114927   3.2044714  56.6690811  38.8101174   2.1345949
  57.3994199  38.5486462   2.6953652  56.0597756  38.0729896   2.1748017
  54.7506108  36.9509037   2.7320400  54.0239271  36.8165002   2.1236891
  54.3353395  37.2585865   3.5377118  42.5736284  40.6698966  10.4967773
  43.4939294  40.8477565  10.6907819  42.5385867  39.7255012  10.3447472
  40.4426222  34.1533207  12.5293303  40.3422949  35.1027564  12.4605394
  40.2247764  33.8251446  11.6569373  40.3057492  37.5830346  11.3458365
  39.8224574  38.3830706  11.5522254  40.3918431  37.5938291  10.3925809
  36.2330830  41.4734880   3.3826798  37.1874083  41.4418823   3.3156730
  36.0343353  41.0125504   4.1977024  36.8230212  40.0435996   5.9497596
  37.6423101  40.5380075   5.9732433  37.0967020  39.1267965   5.9215164
  54.6754976  36.4787090  -1.1402747  54.1154534  36.5480279  -0.3671185
  54.0698479  36.3028074  -1.8603251  37.7450184  47.9123817   0.6115439
  37.6282569  48.8569249   0.5094129  36.9242631  47.6097378   1.0001238
  44.6018518  41.4454978  12.1481934  45.4709678  41.6195630  11.7868569
  44.1225270  42.2649395  12.0257663  38.7704699  48.5652079   3.8271367
  39.6731945  48.5975689   4.1437862  38.5442069  47.6352530   3.8417703
  40.5258301  47.3183065   0.4881446  39.5753932  47.3184927   0.3745818
  40.8290787  46.5715800  -0.0282519  36.4162617  31.5241747  10.7464807
  37.2794079  31.1678552  10.9568132  35.8428028  31.1855642  11.4340212
  56.2610994  53.1543604   1.5527208  56.8989404  53.0350351   0.8490548
  56.1431837  54.1024448   1.6115160  53.0700700  53.1071032   1.4888733
  52.7319212  52.9912097   0.6009268  53.9390468  52.7062197   1.4689739
  48.9287516  54.9606508  -2.5214376  48.3652381  54.8696445  -3.2898088
  48.8139911  54.1406413  -2.0411883  53.5520483  54.2605884   7.4474939
  53.5409124  53.8658682   6.5755442  53.7141123  53.5271956   8.0408710
  46.4751948  56.4557700   0.3169844  47.2673240  56.1148525  -0.0983856
  46.7148598  56.5652675   1.2371998  54.5087075  58.6277476  -7.2099911
  53.8575054  59.2131556  -7.5965897  55.3031438  59.1583671  -7.1504874
  48.4342702  55.7166613  -6.8112777  49.2073578  55.1695600  -6.9499901
  48.7868101  56.5810862  -6.5998315  50.2727744  57.0442995   6.3954123
  49.9817610  57.9488626   6.2800789  50.9084729  57.0859523   7.1098192
  51.1983951  54.4219844   2.9855482  51.7947524  54.1975866   2.2712445
  51.2558923  53.6804589   3.5880930  55.8152263  50.8795058  -1.3719584
  56.6015352  50.4614481  -1.7229167  56.0790967  51.7841150  -1.2037935
  55.9862340  56.3167908  -6.6730927  55.3508173  56.3902534  -5.9610022
  55.6559746  56.9061507  -7.3511848  61.2160690  50.8170291  -0.4686605
  61.9485862  50.2469508  -0.2348776  60.4600045  50.4291891  -0.0280100
  50.4905268  53.7787385  -6.9769952  50.3741527  53.1032289  -6.3088868
  50.6007528  53.2919759  -7.7937799  52.8336809  53.2397532  -3.2723263
  52.4695017  52.7128153  -2.5610341  53.6903925  52.8496001  -3.4456777
  58.7386110  44.5291865   3.9908003  58.4069435  45.3987276   3.7669218
  58.1431723  44.2128149   4.6702034  55.2317630  56.7304411   3.3903916
  54.9318353  57.6329450   3.2819723  54.8868689  56.4636594   4.2425069
  48.6830111  53.1818208  -0.5759379  47.7580607  53.0494422  -0.3681688
  48.9314524  53.9612427  -0.0789437  58.6314773  49.2486951   1.0701354
  57.7231651  49.1802360   0.7760115  58.5802369  49.7258896   1.8983179
  52.4531517  50.7245089  -7.2915247  52.3331142  51.1702140  -6.4529767
  51.7584106  51.0730407  -7.8501709  46.0438922  52.8251481   0.2584410
  46.1731303  53.0785960   1.1723821  45.3636373  53.4179189  -0.0610935
  50.2138409  63.4948731  -3.6425116  50.1362439  64.4456556  -3.5636636
  49.6100053  63.1494604  -2.9850190  52.7055639  50.6676597   9.0136251
  51.9288973  51.2270517   9.0039115  53.3446202  51.1533380   9.5351121
  60.4976420  47.4503389   2.8479227  59.8550800  47.7435923   2.2019022
  59.9931348  47.3356310   3.6532424  58.1516583  51.1966563  -6.4634913
  59.0634439  51.4293949  -6.6387216  57.6426230  51.7803607  -7.0259835
  50.9602011  53.4762050   8.5754218  51.7016696  54.0147094   8.2989041
  50.2538997  54.1028339   8.7325770  56.4357351  55.6191190   7.1726379
  56.8440707  55.1773601   6.4281012  55.7134613  55.0443818   7.4260572
  52.7888421  50.5563797   4.5459936  53.6349616  50.9803211   4.6894585
  52.7287059  49.8997422   5.2398499  56.7586166  56.1792381   0.9278668
  56.1295028  56.3438095   0.2254736  56.3711828  56.5933991   1.6989632
  60.6375398  57.1146819  -1.7176968  59.9526436  57.4945720  -2.2679935
  60.7219247  57.7242146  -0.9845020  55.9387866  48.2168166   6.2041110
  55.6948798  48.9710226   5.6675386  56.2147797  48.5953513   7.0388357
  57.8926329  54.7606778   4.8818375  58.1043224  55.4038538   4.2052757
  57.8456077  53.9269095   4.4140306  55.4952558  47.3724599   1.7854948
  54.6337037  47.6705852   2.0771685  55.5214993  47.5894998   0.8535980
  52.3114128  55.9166789  -1.8071247  52.7752473  56.1954492  -2.5966624
  52.0470926  55.0150234  -1.9898156  49.2038209  55.4638271   1.1308517
  49.7739566  55.8925539   0.4926001  49.7946320  55.1820855   1.8292702
  51.2483014  52.0389942  -4.9981682  51.9507057  52.4910985  -4.5307755
  50.9163642  51.3973760  -4.3701788  49.6963375  50.6301698   9.3769528
  49.0662036  51.3117979   9.6104925  49.5899463  50.5184780   8.4322666
  44.9908348  50.2973494   0.3035452  44.2007402  50.5531023  -0.1724437
  45.4819595  51.1121832   0.4087493  59.0072157  57.6378733   3.0540733
  59.8289601  57.2358921   2.7723414  59.0034560  57.5346968   4.0056849
  46.9423093  50.6618073  -2.7381071  46.1454256  50.7736768  -2.2197576
  46.7148685  51.0004726  -3.6040181  52.7728761  57.1862777   5.2101443
  52.8373193  57.6483184   6.0459615  52.0639684  56.5560142   5.3383753
  43.2746051  50.5503985   2.7350443  43.5254089  51.4350995   3.0008019
  43.8105599  50.3708586   1.9625535  67.0978150  53.9817482  -0.5974296
  66.3441859  53.4124880  -0.7530291  67.2325691  53.9480146   0.3496339
  52.4876778  58.8530884  -4.9219576  52.3522453  59.6982420  -4.4934729
  53.0286591  59.0550162  -5.6853643  48.9744118  44.9322464  11.7394779
  48.5811063  44.3788663  12.4142423  49.7910258  45.2433043  12.1301296
  45.9406176  56.3706322  -4.3491651  46.4530696  57.1649572  -4.1986087
  46.5928888  55.6732613  -4.4158050  47.7501060  59.4872079  -2.2668898
  47.9267689  60.4090043  -2.4547914  48.5457894  59.1730498  -1.8374518
  51.8912079  46.3480343   9.3315035  52.6321792  46.9487496   9.2519498
  52.1230002  45.6057981   8.7733078  47.0353417  51.5336710   7.6093265
  46.9206932  50.6321968   7.9100364  46.1797935  51.7800407   7.2578082
  54.1145255  59.4754451   9.2080766  53.6709109  58.6890829   8.8901670
  54.7762468  59.6633601   8.5424657  48.8732376  61.0050252   3.7341444
  49.4239801  60.8767316   2.9618438  48.0343852  61.3045141   3.3836337
  56.2126493  59.7557251   7.2362167  56.1944968  60.5766132   6.7442436
  57.1346413  59.6311326   7.4612308  52.6699547  57.2701380   8.0785675
  53.2027884  56.5089668   7.8484983  52.1413628  56.9775032   8.8209830
  55.8369242  42.3761446   3.6079317  55.4933511  43.2663088   3.5318428
  56.2048204  42.1863104   2.7448902  43.9055092  54.6994977  -3.5732081
  44.7430314  55.1091985  -3.7898373  44.0833360  53.7594419  -3.6031887
  55.8019525  52.3670057  -7.8848248  55.2866148  53.1374662  -7.6459860
  55.5296833  51.6935193  -7.2615186  53.3866636  47.2119758  -2.8263009
  52.5308232  46.8226608  -3.0057371  53.7993587  47.2911719  -3.6863224
  54.9165782  44.7466101   1.5728550  54.4130578  44.7096236   0.7596356
  55.2096389  45.6558844   1.6325207  51.1608668  44.8304831   0.5794732
  52.0261665  44.6347640   0.2200622  51.2286177  44.6015183   1.5064089
  60.7753799  55.1202412  -5.9495074  59.9983241  54.7813571  -6.3939912
  61.4545280  55.1255035  -6.6240109  55.5905828  50.2397149  -6.0588467
  55.2855963  50.5543298  -5.2078323  56.5436270  50.3178569  -6.0161134
  54.0352260  56.3987373  -4.4095513  53.5073621  55.6640132  -4.7222275
  53.5339762  57.1762049  -4.6555544  59.0145106  54.5936393   0.7071534
  58.3568780  55.2835654   0.7951662  59.8185505  54.9832825   1.0505520
  48.7670987  47.0607039  -2.0488901  49.3414739  46.8382220  -2.7815708
  49.3541970  47.1295733  -1.2960300  57.8250564  52.9480766  -1.2424525
  58.3382446  53.5810758  -0.7402815  58.4751788  52.3481961  -1.6081165
  51.0693655  43.9348288  -3.3213832  50.4158067  43.6197305  -3.9457217
  51.0274129  43.3124028  -2.5954009  54.3031395  50.4230221   1.0033816
  53.3853957  50.6445168   0.8455504  54.7191539  50.4976532   0.1445523
  55.0866443  51.8221637  -3.8663504  55.8338262  52.3343034  -4.1756382
  55.3558033  51.5005690  -3.0059110  53.3593093  54.3180178  -6.8836549
  52.4504312  54.0339211  -6.7864080  53.3888177  54.7379256  -7.7433243
  58.5912361  57.9286767  -3.1145382  58.1374688  57.0877677  -3.0580191
  57.9606327  58.5648166  -2.7770602  57.5345280  48.8578753  -1.8844714
  56.7968037  48.3456139  -1.5534472  57.7872054  48.4179135  -2.6961438
  57.0345300  59.7663264  -2.1795564  57.3268274  60.3268321  -2.8983198
  57.5443920  60.0591825  -1.4242405  57.6356907  41.6355005  -1.2902945
  57.9415784  40.7752369  -1.5777030  58.3609512  42.2272625  -1.4903951
  43.9281264  52.0385692  -2.9021347  43.7305663  51.4455053  -3.6270281
  43.3727928  51.7337902  -2.1845408  51.9077987  51.9308798  -0.7826754
  51.9626597  50.9782635  -0.8584278  51.0969189  52.0868237  -0.2985456
  49.8470347  50.5485858  -3.0236375  49.0338213  50.8480029  -2.6171183
  50.3429341  50.1541547  -2.3061893  51.9978925  60.5443615  -1.0902111
  51.9555104  60.7704461  -2.0193579  52.9141624  60.3106990  -0.9416309
  55.4444559  51.0127683   5.8078519  55.7993947  51.2399156   6.6672984
  56.0916690  51.3446059   5.1855774  61.1742296  54.1346118  -3.4872152
  61.0360194  54.3247714  -4.4150963  60.8178515  54.8965501  -3.0304101
  49.3384422  48.1204214   2.5924860  49.9783801  47.9792973   1.8947823
  48.5061952  47.8338727   2.2163462  61.2011675  56.2022645   1.5239119
  61.6348182  56.1097935   2.3722173  61.9143256  56.1780146   0.8859135
  50.1144726  57.4206644  -1.2940148  50.9085324  56.9256964  -1.4957573
  49.4036418  56.8924507  -1.6572442  54.9339570  59.8024740   3.0572220
  54.9876593  60.3715676   3.8249936  54.0654352  59.9726625   2.6926257
  46.4227489  51.5649726  -5.2180395  45.4925077  51.5034181  -5.0010433
  46.5184961  51.0425679  -6.0143754  46.3413038  48.0904539  -2.6302154
  46.6019856  49.0049872  -2.7392993  47.1630211  47.6228981  -2.4805541
  47.8137964  49.5042296   4.5396671  48.4861017  49.2959658   3.8909320
  46.9867750  49.3064382   4.1001903  62.0627225  56.2446346   4.0572005
  62.2563115  57.1492157   4.3031279  61.9627843  55.7853765   4.8910590
  53.7163536  46.1304237   6.5562332  53.0691451  46.8294186   6.4626808
  54.4864551  46.5640381   6.9238580  57.1242334  56.3953089   9.6312885
  56.9727840  56.1663641   8.7142969  57.1147013  57.3523690   9.6444230
  53.8927670  53.9685002   4.6159152  54.8219730  54.1196161   4.4428119
  53.4718700  54.0569022   3.7607798  52.6916002  57.9935666   2.3857689
  52.5527087  57.6254450   3.2583627  51.9030598  58.5083305   2.2141647
  54.2421217  57.3717269  -0.2253473  53.9071050  57.3318039   0.6704177
  53.7425163  56.7061985  -0.6983063  48.2165461  52.7784899   5.2999108
  48.0785259  52.0465138   5.9010647  49.1270384  52.6893799   5.0183296
  50.8447762  52.4904858   4.7882788  51.5547380  51.8498050   4.7469406
  50.8017070  52.7417753   5.7108969  58.8334540  59.4272211   7.7089367
  58.7747086  58.7431432   7.0419950  59.2354059  60.1691201   7.2569993
  49.5576696  49.4770076   6.6078427  49.0214053  49.0260814   7.2600024
  48.9693404  49.6115985   5.8648892  47.8525239  66.2434125   0.5023086
  48.0921837  66.8752649   1.1802104  47.0094436  65.8922165   0.7888445
  58.8351948  57.3911795   5.9403347  57.9478726  57.0537717   6.0629746
  59.4050499  56.6594827   6.1772112  40.4881095  53.7235887  -0.7353602
  41.1752134  53.4097617  -1.3232587  40.3329223  54.6277252  -1.0086350
  45.2915817  48.6126084   3.6931422  45.2074006  48.0051753   2.9581832
  44.4698523  49.1035102   3.6940918  52.3653101  62.0513248   2.9064590
  52.2923272  62.8568219   3.4183894  51.9230494  62.2505214   2.0812611
  52.1542881  61.2885018  -3.5832589  51.3710402  61.8306698  -3.4894364
  52.8535626  61.8058997  -3.1838347  55.4639531  47.0979647  -0.9398383
  55.9608230  46.3449609  -1.2597313  54.6926512  47.1343964  -1.5055174
  63.3169288  52.8020013   0.7019908  63.3059164  53.6844728   0.3313841
  62.4486667  52.4491564   0.5074445  54.8251784  61.9500082   5.0622749
  55.5379757  62.5847547   4.9898650  54.3341813  62.0463948   4.2462750
  56.5469311  55.8551334  -3.3659960  55.6125590  55.9752797  -3.5355255
  56.7245980  54.9523801  -3.6299950  52.0474499  49.2397030  -1.2126699
  51.6772287  48.6868071  -0.5245793  52.5433592  48.6355164  -1.7651699
  59.9341863  51.6968654  -2.8309926  60.4002315  52.5296645  -2.9049623
  60.3849363  51.2313635  -2.1264667  49.8763698  59.6994525   5.8828319
  50.5773157  60.3331008   6.0357714  49.4058813  60.0409257   5.1223959
  58.0018094  58.0412475  -5.8323774  58.2777938  57.9269070  -4.9229900
  57.1322593  57.6429960  -5.8711600  57.9058525  44.0649241   1.2080976
  56.9921605  44.2953468   1.3763183  58.3351627  44.1487685   2.0595008
  57.6764984  52.2539133   3.7080870  57.0236434  52.5015040   3.0533323
  58.0545364  51.4403271   3.3743347  54.6372158  62.2898826  -2.1890960
  54.8194552  61.4720482  -1.7263208  55.4605144  62.5066518  -2.6266070
  54.9714323  61.2167011  -4.9275911  55.5002090  60.7059466  -5.5405749
  55.2342543  60.9009541  -4.0630378  53.7252557  52.9958944  10.1946907
  53.0493194  52.8953073  10.8649282  54.5480191  52.8398157  10.6582904
  45.4731416  59.2330880   2.8159422  46.0584853  58.4874568   2.9487326
  45.2756254  59.5434837   3.6996086  48.3270071  62.2682128  -2.1678136
  47.6580446  62.7528255  -2.6514095  48.1882941  62.5151348  -1.2534757
  40.0649071  51.8036480   1.5363865  40.1033170  51.2700071   2.3300983
  39.5589364  51.2771686   0.9174842  52.4675340  64.3025871   4.4304523
  53.0193648  64.4657493   5.1953608  52.8081533  64.8930309   3.7584548
  47.4439833  46.6501021   5.0326408  47.5081160  47.5115852   4.6203805
  47.3806953  46.0375023   4.2998766  46.9192106  48.7224153   8.6799442
  47.5464144  48.3401231   9.2936966  46.0620024  48.5038355   9.0455134
  57.3186214  59.1287129  10.2853177  57.8626118  59.7417087   9.7908132
  56.7373059  59.6866707  10.8020190  55.6043727  62.2507847   1.4168205
  55.4794867  61.4497587   0.9079150  56.2622818  62.7454040   0.9282175
  47.2251895  48.6056579   0.5945345  46.5038481  49.2192547   0.4552819
  48.0145151  49.1414344   0.5161991  57.6678635  60.0516867   3.0447755
  56.7208971  59.9322218   2.9726082  58.0161409  59.1639365   3.1274017
  50.0278209  45.9411006   6.8685997  50.5512611  46.1873302   7.6312306
  49.8090542  46.7731040   6.4489134  54.6725069  59.8469583  -0.7547893
  54.5250031  58.9186290  -0.5740323  55.4978562  59.8689674  -1.2390817
  48.5387313  48.4987650  -4.8967401  48.8783386  49.0273571  -5.6188792
  48.9859434  48.8368056  -4.1208834  58.2759191  60.6698142   0.3316980
  59.2005738  60.4641003   0.1941431  58.1074494  60.4214543   1.2406322
  51.2330754  46.8824701   4.5535667  50.8927574  46.0832514   4.9556347
  50.5269760  47.1826412   3.9812501  51.8847226  43.9674013   3.0062991
  52.7073295  43.4934491   2.8841881  52.1285289  44.7464497   3.5061677
  54.6686583  47.7007421  -5.7615775  54.8850197  48.5832058  -6.0626947
  54.1880650  47.3093634  -6.4910133  49.4085804  50.6593134   0.8154969
  49.2630385  50.9733437   1.7079251  48.9311008  51.2778034   0.2625868
  51.2682187  47.6495682   0.8635859  51.2543756  46.7536775   0.5268157
  51.9854615  47.6566346   1.4974145  53.1208318  48.0833022   2.9088986
  52.8626096  49.0050093   2.9073317  52.5893358  47.6863457   3.5989450
  43.8831467  53.1998478   3.7542630  43.3384935  53.9758286   3.8862905
  44.7610817  53.5469283   3.5961752  50.6719083  46.5310062  -3.8676571
  50.7934994  45.6026708  -3.6685684  50.3821126  46.5448748  -4.7798256
  53.5410274  44.2164973  -0.7309851  53.5631971  44.2804306  -1.6857872
  53.9578333  43.3769481  -0.5369345  63.9193898  53.9520232  -2.6930629
  64.3625044  53.2027557  -3.0911505  63.0420408  53.9430368  -3.0756897
  44.6697489  52.3268374   6.6472787  43.9279225  52.4751010   7.2337418
  44.3490233  52.5876640   5.7839537  52.6141151  61.8684353   6.4453177
  52.9228278  61.6233499   7.3175877  53.4116633  62.0730991   5.9572047
  52.6361763  64.0222262  -1.3241446  52.1966753  63.5298641  -0.6308590
  53.3869880  63.4795230  -1.5649371  45.1154102  60.2133803  -1.3216818
  45.9412122  59.9137575  -1.7018175  44.7648154  59.4441426  -0.8727030
  50.0835635  59.5660271   0.7480855  49.4615645  58.9030976   0.4483083
  50.7540502  59.5921403   0.0654503  43.3162707  58.1320130  -0.3627885
  42.4794616  57.7042304  -0.5443883  43.2886353  58.3252573   0.5742907
  50.1560163  48.0442059  10.3413361  50.2048318  48.9204182   9.9591131
  50.6982677  47.5019453   9.7685005  60.6415009  58.5883183   9.6214499
  59.8510552  58.5707322   9.0818998  60.4048363  59.1271476  10.3763535
  60.7612884  55.4375649   6.9347227  60.8110888  55.2725657   7.8762750
  60.6526807  54.5702908   6.5445108  49.6449142  58.1164195  -5.7760684
  49.7937263  58.7999659  -6.4294011  50.4515586  58.0969285  -5.2611228
  58.0516646  51.4206577   8.2506534  58.9526509  51.2813042   7.9590532
  58.1264620  51.5861032   9.1904711  52.3859451  48.7973432   7.0959720
  51.5162761  49.0906998   6.8242309  52.6218932  49.3813877   7.8166984
  62.2631080  57.8572591   7.1789249  61.9715889  58.2202571   8.0152710
  61.6503212  57.1439599   7.0002581  63.4626763  55.4225470  -0.3008181
  64.2973654  55.8615274  -0.1370621  63.5985892  54.9464124  -1.1199935
  60.5118269  52.9805205   5.6469307  60.9872390  53.1732852   4.8388158
  59.5883834  53.0364391   5.4012690  47.4001775  54.1429372  -4.7699615
  47.1547817  53.2391702  -4.5719405  47.5697690  54.1446523  -5.7120137
  55.0898485  45.0153049   4.6125140  55.6080429  45.7514076   4.2871629
  54.7353618  45.3217042   5.4471900  55.3411079  41.4353331   0.1326037
  55.6212833  40.7676520   0.7586464  56.1261686  41.6282427  -0.3799299
  59.2119938  49.8570965   3.8797612  60.1637361  49.9569063   3.9009836
  59.0423388  49.0649234   4.3895697  57.2334317  46.9426549   4.0657013
  56.6384249  47.2231561   3.3703502  56.9484014  47.4320449   4.8373754
  61.6908015  53.0777085   2.9939912  61.6584336  52.1393086   3.1799596
  62.3008639  53.1561122   2.2605737  61.8402504  49.8688128   3.0398195
  61.3241553  49.0846585   2.8528124  62.7242452  49.5406845   3.2044714
  59.5013231  43.6129144  -1.0005992  59.3038052  43.3044232  -0.1162660
  60.1112936  44.3390783  -0.8708062  67.5084565  54.1393092   2.1345949
  68.2387954  53.8778380   2.6953652  66.8991511  53.4021814   2.1748017
  65.5899862  52.2800954   2.7320400  64.8633026  52.1456919   2.1236891
  65.1747149  52.5877783   3.5377118  53.4130039  55.9990884  10.4967773
  54.3333048  56.1769483  10.6907819  53.3779622  55.0546929  10.3447472
  42.6312204  51.1929478  -0.5778953  42.3114988  50.3394786  -0.8704579
  42.0845632  51.4078056   0.1779015  46.4092111  53.9091919   3.1390554
  46.6278121  54.8409027   3.1578588  46.8217885  53.5499893   3.9245358
  53.3296329  44.4160004  -4.8733758  52.5197057  44.0707089  -4.4978512
  54.0180746  44.1067548  -4.2846146  55.2586877  43.4938051  -3.2509461
  55.8117916  43.9133504  -2.5919438  55.4956964  42.5673799  -3.2086505
  51.2819977  49.4825125  12.5293303  51.1816704  50.4319481  12.4605394
  51.0641519  49.1543363  11.6569373  42.5000464  54.8132389   1.3914169
  41.8063935  54.3986342   0.8784123  43.2473455  54.8552926   0.7947588
  58.6365685  45.6038576  -3.7430797  58.0564354  46.2623380  -4.1252744
  58.3701617  44.7815921  -4.1543379  57.0869251  45.0043634  -1.5409476
  57.5869029  45.1160168  -2.3495158  57.7304859  44.7004687  -0.9008668
  51.1451247  52.9122263  11.3458365  50.6618328  53.7122623  11.5522254
  51.2312186  52.9230208  10.3925809  44.4137206  54.7450643  -0.7319816
  44.3907894  54.8438330  -1.6837933  44.7237843  55.5915794  -0.4102650
  47.0724584  56.8026798   3.3826798  48.0267838  56.7710740   3.3156730
  46.8737108  56.3417422   4.1977024  47.6623966  55.3727914   5.9497596
  48.4816855  55.8671993   5.9732433  47.9360774  54.4559882   5.9215164
  57.4190563  47.7638666  -4.6874448  56.5316418  48.0488317  -4.9054254
  57.8344552  47.6032430  -5.5347172  60.7705099  47.7885187  -0.9720109
  61.5465489  48.2781640  -0.6995492  60.0453233  48.2143242  -0.5148240
  63.2077657  48.5012807   0.0853831  63.8022148  48.2608543  -0.6252860
  63.2804241  47.7819937   0.7127368  45.4274813  62.3446418   0.3996996
  45.2929281  61.5846818  -0.1665006  45.0106875  63.0687317  -0.0674215
  57.3931586  53.2793202  -4.4724158  57.3366788  53.7361754  -5.3116526
  57.9459929  52.5183887  -4.6501316  61.2036392  49.0682934  -3.6474039
  60.9473326  48.6679570  -2.8165831  60.5789260  49.7826728  -3.7723900
  65.5148730  51.8079007  -1.1402747  64.9548288  51.8772197  -0.3671185
  64.9092233  51.6319992  -1.8603251  48.5843939  63.2415735   0.6115439
  48.4676323  64.1861167   0.5094129  47.7636385  62.9389296   1.0001238
  58.1266366  54.4697984  -7.1771629  58.0715169  54.3042255  -8.1183185
  57.5012421  55.1774017  -7.0209439  42.9158881  49.7066048   6.6489793
  43.5617744  49.1965002   7.1377018  42.7076032  50.4434730   7.2233218
  55.4412273  56.7746895  12.1481934  56.3103432  56.9487548  11.7868569
  54.9619024  57.5941312  12.0257663  49.6098453  63.8943996   3.8271367
  50.5125700  63.9267607   4.1437862  49.3835823  62.9644447   3.8417703
  51.3652055  62.6474983   0.4881446  50.4147686  62.6476845   0.3745818
  51.6684541  61.9007718  -0.0282519  55.2514611  40.5648869  -3.3440374
  54.4847006  40.0107356  -3.1983692  55.6625315  40.6370738  -2.4826222
  47.2556372  46.8533665  10.7464807  48.1187833  46.4970470  10.9568132
  46.6821782  46.5147560  11.4340212  64.3914238  69.5897801   7.4474939
  64.3802879  69.1950600   6.5755442  64.5534877  68.8563874   8.0408710
  61.1121499  72.3734913   6.3954123  60.8211365  73.2780544   6.2800789
  61.7478483  72.4151441   7.1098192  62.0377706  69.7511762   2.9855482
  62.6341278  69.5267784   2.2712445  62.0952677  69.0096507   3.5880930
  69.5779864  59.8583783   3.9908003  69.2463189  60.7279194   3.7669218
  68.9825478  59.5420067   4.6702034  56.8832677  68.1543399   0.2584410
  57.0125058  68.4077878   1.1723821  56.2030128  68.7471107  -0.0610935
  63.5449394  65.9968514   9.0136251  62.7682728  66.5562434   9.0039115
  64.1839957  66.4825297   9.5351121  71.3370174  62.7795307   2.8479227
  70.6944554  63.0727840   2.2019022  70.8325103  62.6648227   3.6532424
  61.7995766  68.8053968   8.5754218  62.5410450  69.3439012   8.2989041
  61.0932751  69.4320256   8.7325770  67.2751106  70.9483108   7.1726379
  67.6834462  70.5065519   6.4281012  66.5528367  70.3735736   7.4260572
  63.6282176  65.8855715   4.5459936  64.4743371  66.3095128   4.6894585
  63.5680813  65.2289339   5.2398499  66.7781621  63.5460083   6.2041110
  66.5342553  64.3002144   5.6675386  67.0541551  63.9245431   7.0388357
  66.3346313  62.7016516   1.7854948  65.4730792  62.9997770   2.0771685
  66.3608747  62.9186915   0.8535980  60.5357130  65.9593616   9.3769528
  59.9055790  66.6409897   9.6104925  60.4293218  65.8476697   8.4322666
  55.8302102  65.6265412   0.3035452  55.0401156  65.8822940  -0.1724437
  56.3213349  66.4413750   0.4087493  63.6122515  72.5154694   5.2101443
  63.6766948  72.9775102   6.0459615  62.9033439  71.8852059   5.3383753
  54.1139805  65.8795902   2.7350443  54.3647843  66.7642912   3.0008019
  54.6499353  65.7000504   1.9625535  59.8137872  60.2614382  11.7394779
  59.4204818  59.7080580  12.4142423  60.6304013  60.5724960  12.1301296
  62.7305833  61.6772261   9.3315035  63.4715547  62.2779414   9.2519498
  62.9623756  60.9349899   8.7733078  57.8747171  66.8628628   7.6093265
  57.7600686  65.9613885   7.9100364  57.0191689  67.1092325   7.2578082
  64.9539009  74.8046368   9.2080766  64.5102863  74.0182747   8.8901670
  65.6156223  74.9925519   8.5424657  63.5093301  72.5993298   8.0785675
  64.0421638  71.8381586   7.8484983  62.9807382  72.3066950   8.8209830
  66.6762996  57.7053364   3.6079317  66.3327266  58.5955005   3.5318428
  67.0441959  57.5155021   2.7448902  65.7559537  60.0758019   1.5728550
  65.2524332  60.0388154   0.7596356  66.0490144  60.9850762   1.6325207
  62.0002423  60.1596749   0.5794732  62.8655419  59.9639557   0.2200622
  62.0679931  59.9307100   1.5064089  59.6064742  62.3898957  -2.0488901
  60.1808494  62.1674138  -2.7815708  60.1935724  62.4587651  -1.2960300
  61.9087409  59.2640205  -3.3213832  61.2551822  58.9489223  -3.9457217
  61.8667883  58.6415946  -2.5954009  68.4750662  56.9646923  -1.2902945
  68.7809539  56.1044286  -1.5777030  69.2003267  57.5564543  -1.4903951
  66.2838313  66.3419600   5.8078519  66.6387701  66.5691073   6.6672984
  66.9310445  66.6737977   5.1855774  60.1778176  63.4496131   2.5924860
  60.8177556  63.3084890   1.8947823  59.3455707  63.1630645   2.2163462
  57.1806793  63.4196456  -2.6302154  57.4413610  64.3341790  -2.7392993
  58.0023965  62.9520899  -2.4805541  58.6531718  64.8334213   4.5396671
  59.3254772  64.6251576   3.8909320  57.8261505  64.6356299   4.1001903
  64.5557290  61.4596154   6.5562332  63.9085205  62.1586104   6.4626808
  65.3258306  61.8932298   6.9238580  67.9636088  71.7245007   9.6312885
  67.8121594  71.4955558   8.7142969  67.9540768  72.6815608   9.6444230
  64.7321424  69.2976919   4.6159152  65.6613484  69.4488079   4.4428119
  64.3112455  69.3860940   3.7607798  59.0559215  68.1076816   5.2999108
  58.9179013  67.3757055   5.9010647  59.9664139  68.0185717   5.0183296
  61.6841516  67.8196776   4.7882788  62.3941135  67.1789968   4.7469406
  61.6410824  68.0709671   5.7108969  60.3970450  64.8061994   6.6078427
  59.8607807  64.3552732   7.2600024  59.8087158  64.9407902   5.8648892
  51.3274849  69.0527805  -0.7353602  52.0145889  68.7389535  -1.3232587
  51.1722978  69.9569169  -1.0086350  56.1309571  63.9418001   3.6931422
  56.0467760  63.3343671   2.9581832  55.3092278  64.4327020   3.6940918
  60.7157452  75.0286443   5.8828319  61.4166912  75.6622926   6.0357714
  60.2452567  75.3701174   5.1223959  68.7452280  59.3941158   1.2080976
  67.8315360  59.6245385   1.3763183  69.1745381  59.4779602   2.0595008
  68.5158738  67.5831050   3.7080870  67.8630189  67.8306958   3.0533323
  68.8939118  66.7695188   3.3743347  64.5646311  68.3250861  10.1946907
  63.8886948  68.2244991  10.8649282  65.3873945  68.1690075  10.6582904
  56.3125171  74.5622798   2.8159422  56.8978607  73.8166486   2.9487326
  56.1150009  74.8726755   3.6996086  50.9042825  67.1328398   1.5363865
  50.9426925  66.5991989   2.3300983  50.3983118  66.6063604   0.9174842
  58.2833588  61.9792939   5.0326408  58.3474914  62.8407770   4.6203805
  58.2200708  61.3666940   4.2998766  57.7585860  64.0516071   8.6799442
  58.3857899  63.6693148   9.2936966  56.9013779  63.8330273   9.0455134
  68.1579969  74.4579046  10.2853177  68.7019873  75.0709005   9.7908132
  67.5766813  75.0158625  10.8020190  58.0645650  63.9348497   0.5945345
  57.3432236  64.5484465   0.4552819  58.8538906  64.4706262   0.5161991
  60.8671963  61.2702923   6.8685997  61.3906365  61.5165220   7.6312306
  60.6484297  62.1022958   6.4489134  62.0724508  62.2116618   4.5535667
  61.7321329  61.4124432   4.9556347  61.3663515  62.5118329   3.9812501
  62.7240980  59.2965931   3.0062991  63.5467050  58.8226409   2.8841881
  62.9679044  60.0756415   3.5061677  60.2479559  65.9885052   0.8154969
  60.1024140  66.3025355   1.7079251  59.7704763  66.6069952   0.2625868
  62.1075942  62.9787599   0.8635859  62.0937511  62.0828693   0.5268157
  62.8248370  62.9858263   1.4974145  63.9602073  63.4124940   2.9088986
  63.7019850  64.3342010   2.9073317  63.4287113  63.0155374   3.5989450
  54.7225221  68.5290396   3.7542630  54.1778689  69.3050204   3.8862905
  55.6004571  68.8761200   3.5961752  64.3804028  59.5456890  -0.7309851
  64.4025725  59.6096223  -1.6857872  64.7972087  58.7061399  -0.5369345
  55.5091243  67.6560292   6.6472787  54.7672979  67.8042928   7.2337418
  55.1883987  67.9168558   5.7839537  60.9953917  63.3733977  10.3413361
  61.0442073  64.2496100   9.9591131  61.5376432  62.8311370   9.7685005
  71.4808763  73.9175100   9.6214499  70.6904307  73.8999239   9.0818998
  71.2442118  74.4563394  10.3763535  71.6006638  70.7667567   6.9347227
  71.6504643  70.6017574   7.8762750  71.4920561  69.8994826   6.5445108
  68.8910400  66.7498495   8.2506534  69.7920263  66.6104960   7.9590532
  68.9658375  66.9152950   9.1904711  63.2253206  64.1265350   7.0959720
  62.3556515  64.4198916   6.8242309  63.4612686  64.7105795   7.8166984
  65.9292240  60.3444966   4.6125140  66.4474183  61.0805993   4.2871629
  65.5747372  60.6508960   5.4471900  66.1804834  56.7645249   0.1326037
  66.4606588  56.0968438   0.7586464  66.9655441  56.9574345  -0.3799299
  70.0513692  65.1862883   3.8797612  71.0031115  65.2860981   3.9009836
  69.8817143  64.3941152   4.3895697  68.0728072  62.2718466   4.0657013
  67.4778004  62.5523479   3.3703502  67.7877768  62.7612367   4.8373754
  64.2523793  71.3282802  10.4967773  65.1726803  71.5061401  10.6907819
  64.2173376  70.3838847  10.3447472  53.4705958  66.5221395  -0.5778953
  53.1508743  65.6686704  -0.8704579  52.9239386  66.7369974   0.1779015
  57.2485866  69.2383836   3.1390554  57.4671876  70.1700944   3.1578588
  57.6611640  68.8791811   3.9245358  62.1213731  64.8117042  12.5293303
  62.0210458  65.7611399  12.4605394  61.9035273  64.4835281  11.6569373
  53.3394218  70.1424307   1.3914169  52.6457690  69.7278260   0.8784123
  54.0867209  70.1844843   0.7947588  61.9845001  68.2414181  11.3458365
  61.5012083  69.0414541  11.5522254  62.0705940  68.2522126  10.3925809
  57.9118339  72.1318716   3.3826798  58.8661592  72.1002658   3.3156730
  57.7130862  71.6709339   4.1977024  58.5017721  70.7019832   5.9497596
  59.3210610  71.1963910   5.9732433  58.7754529  69.7851800   5.9215164
  53.7552635  65.0357966   6.6489793  54.4011499  64.5256920   7.1377018
  53.5469786  65.7726647   7.2233218  66.2806027  72.1038813  12.1481934
  67.1497187  72.2779465  11.7868569  65.8012779  72.9233230  12.0257663
  66.0908365  55.8940787  -3.3440374  65.3240761  55.3399274  -3.1983692
  66.5019070  55.9662656  -2.4826222  58.0950126  62.1825583  10.7464807
  58.9581588  61.8262388  10.9568132  57.5215537  61.8439478  11.4340212
  70.6531627  75.5906299  11.7394779  70.2598572  75.0372498  12.4142423
  71.4697767  75.9016878  12.1301296  68.9343881  77.5117500  10.7464807
  69.7975342  77.1554305  10.9568132  68.3609291  77.1731395  11.4340212
  57.3186215  36.1349251  -2.9901516  57.8626119  36.7479210  -3.4846561
  56.7373060  36.6928830  -2.4734503  64.3914239  46.5959924  -5.8279755
  64.3802880  46.2012722  -6.6999251  64.5534879  45.8625996  -5.2345983
  61.1121500  49.3797036  -6.8800571  60.8211366  50.2842666  -6.9953905
  61.7478485  49.4213563  -6.1656501  62.0377707  46.7573884 -10.2899211
  62.6341279  46.5329907 -11.0042248  62.0952679  46.0158630  -9.6873763
  63.5449395  43.0030637  -4.2618443  62.7682729  43.5624557  -4.2715578
  64.1839958  43.4887420  -3.7403572  61.7995767  45.8116090  -4.7000476
  62.5410452  46.3501134  -4.9765652  61.0932753  46.4382379  -4.5428924
  67.2751107  47.9545231  -6.1028314  67.6834463  47.5127641  -6.8473682
  66.5528368  47.3797858  -5.8494121  63.6282177  42.8917838  -8.7294757
  64.4743372  43.3157251  -8.5860108  63.5680815  42.2351462  -8.0356194
  66.7781622  40.5522206  -7.0713583  66.5342554  41.3064266  -7.6079308
  67.0541553  40.9307553  -6.2366336  60.5357131  42.9655738  -3.8985166
  59.9055791  43.6472019  -3.6649769  60.4293219  42.8538820  -4.8432027
  63.6122516  49.5216817  -8.0653250  63.6766949  49.9837224  -7.2295078
  62.9033440  48.8914182  -7.9370940  59.8137874  37.2676504  -1.5359914
  59.4204819  36.7142703  -0.8612270  60.6304014  37.5787083  -1.1453397
  62.7305835  38.6834383  -3.9439658  63.4715548  39.2841537  -4.0235195
  62.9623757  37.9412021  -4.5021615  57.8747173  43.8690751  -5.6661428
  57.7600688  42.9676008  -5.3654329  57.0191690  44.1154447  -6.0176612
  64.9539010  51.8108491  -4.0673928  64.5102865  51.0244870  -4.3853023
  65.6156224  51.9987641  -4.7330037  63.5093303  49.6055420  -5.1969018
  64.0421639  48.8443709  -5.4269710  62.9807384  49.3129072  -4.4544864
  66.2838315  43.3481723  -7.4676175  66.6387702  43.5753196  -6.6081709
  66.9310446  43.6800100  -8.0898919  64.5557291  38.4658277  -6.7192361
  63.9085206  39.1648227  -6.8127885  65.3258307  38.8994421  -6.3516113
  67.9636089  48.7307129  -3.6441808  67.8121596  48.5017681  -4.5611724
  67.9540769  49.6877731  -3.6310463  64.7321426  46.3039042  -8.6595542
  65.6613486  46.4550201  -8.8326574  64.3112456  46.3923063  -9.5146895
  59.0559217  45.1138939  -7.9755585  58.9179015  44.3819178  -7.3744046
  59.9664140  45.0247839  -8.2571397  61.6841517  44.8258898  -8.4871906
  62.3941136  44.1852091  -8.5285287  61.6410825  45.0771793  -7.5645725
  60.3970451  41.8124116  -6.6676266  59.8607808  41.3614855  -6.0154670
  59.8087160  41.9470025  -7.4105802  60.7157454  52.0348565  -7.3926374
  61.4166913  52.6685048  -7.2396980  60.2452569  52.3763297  -8.1530735
  68.5158740  44.5893173  -9.5673824  67.8630190  44.8369080 -10.2221371
  68.8939120  43.7757311  -9.9011346  64.5646313  45.3312984  -3.0807787
  63.8886950  45.2307113  -2.4105411  65.3873947  45.1752198  -2.6171789
  56.3125172  51.5684920 -10.4595271  56.8978609  50.8228608 -10.3267367
  56.1150010  51.8788877  -9.5758607  57.7585861  41.0578194  -4.5955252
  58.3857900  40.6755271  -3.9817727  56.9013780  40.8392396  -4.2299559
  68.1579970  51.4641169  -2.9901516  68.7019874  52.0771127  -3.4846561
  67.5766815  52.0220747  -2.4734503  60.9953919  40.3796100  -2.9341332
  61.0442074  41.2558223  -3.3163562  61.5376433  39.8373493  -3.5069689
  71.4808764  50.9237223  -3.6540195  70.6904308  50.9061362  -4.1935695
  71.2442119  51.4625517  -2.8991158  71.6006639  47.7729689  -6.3407466
  71.6504644  47.6079697  -5.3991944  71.4920563  46.9056948  -6.7309586
  68.8910402  43.7560617  -5.0248160  69.7920264  43.6167082  -5.3164162
  68.9658376  43.9215072  -4.0849982  63.2253207  41.1327472  -6.1794973
  62.3556516  41.4261038  -6.4512385  63.4612687  41.7167917  -5.4587710
  70.0513693  42.1925006  -9.3957081  71.0031116  42.2923103  -9.3744857
  69.8817144  41.4003274  -8.8858997  64.2523795  48.3344924  -2.7786921
  65.1726804  48.5123523  -2.5846874  64.2173378  47.3900970  -2.9307221
  62.1213732  41.8179165  -0.7461390  62.0210459  42.7673522  -0.8149299
  61.9035274  41.4897404  -1.6185320  61.9845002  45.2476304  -1.9296329
  61.5012084  46.0476664  -1.7232440  62.0705942  45.2584249  -2.8828885
  57.9118340  49.1380838  -9.8927895  58.8661594  49.1064781  -9.9597963
  57.7130864  48.6771462  -9.0777669  58.5017722  47.7081954  -7.3257097
  59.3210611  48.2026033  -7.3022260  58.7754530  46.7913923  -7.3539530
  66.2806029  49.1100936  -1.1272760  67.1497188  49.2841588  -1.4886125
  65.8012780  49.9295353  -1.2497030  58.0950127  39.1887705  -2.5289886
  58.9581589  38.8324510  -2.3186561  57.5215538  38.8501600  -1.8414482
  70.6531628  52.5968422  -1.5359914  70.2598574  52.0434621  -0.8612270
  71.4697768  52.9079000  -1.1453397  68.9343882  54.5179623  -2.5289886
  69.7975343  54.1616428  -2.3186561  68.3609292  54.1793518  -1.8414482
   2.0615619  76.9755361  39.2289781   1.3079328  76.4062759  39.0733786
   2.1963161  76.9418026  40.1760416   2.4722035  77.1330971  41.9610026
   3.2025423  76.8716259  42.5217729   1.8628980  76.3959693  42.0012094
   1.6183486  89.2024854  38.4544493   2.4046576  88.7844278  38.1034910
   1.8822191  90.1070947  38.6226142   7.0191913  89.1400088  39.3577472
   7.7517085  88.5699304  39.5915301   6.2631269  88.7521688  39.7983977
   4.5417334  82.8521662  43.8172080   4.2100659  83.7217073  43.5933295
   3.9462947  82.5357946  44.4966111   4.4345997  87.5716748  40.8965431
   3.5262874  87.5032156  40.6024192   4.3833593  88.0488693  41.7247256
   6.3007643  85.7733186  42.6743304   5.6582024  86.0665719  42.0283099
   5.7962572  85.6586107  43.4796501   3.9547807  89.5196360  33.3629164
   4.8665663  89.7523746  33.1876861   3.4457454  90.1033404  32.8004242
   1.7419090  86.5397962  46.0305187   1.4980022  87.2940023  45.4939463
   2.0179021  86.9183310  46.8652434  12.9009374  92.3047279  39.2289781
  12.1473082  91.7354677  39.0733786  13.0356915  92.2709943  40.1760416
   1.6400466  80.6991243  43.4343394   1.2964735  81.5892885  43.3582505
   2.0079428  80.5092901  42.5712979   1.3937051  88.5626946  33.7675610
   1.0887187  88.8773095  34.6185754   2.3467494  88.6408366  33.8102943
   3.6281788  91.2710563  38.5839552   4.1413670  91.9040554  39.0861262
   4.2783012  90.6711758  38.2182912   0.8897667  90.1451434  35.9600573
   1.6369486  90.6572831  35.6507695   1.1589256  89.8235487  36.8204967
   3.3376504  87.1808550  37.9419363   2.5999261  86.6685936  38.2729605
   3.5903277  86.7408932  37.1302639   3.4388131  79.9584802  38.5361132
   3.7447008  79.0982166  38.2487047   4.1640736  80.5502422  38.3360126
   1.2475783  89.3357479  45.6342596   1.6025170  89.5628953  46.4937061
   1.8947914  89.6675856  45.0119851   1.2670754  85.4209444  38.8865694
   1.7639454  84.6679406  38.5666764   0.4957736  85.4573761  38.3208903
   9.1200512  91.1249810  40.5283985   9.1090388  92.0074525  40.1577918
   8.2517891  90.7721360  40.3338522   5.7373086  90.0198451  36.9954151
   6.2033539  90.8526442  36.9214454   6.1880587  89.5543432  37.6999410
   3.7089749  82.3879038  41.0345053   2.7952829  82.6183264  41.2027260
   4.1382851  82.4717482  41.8859085   3.4796208  90.5768929  43.5344947
   2.8267658  90.8244837  42.8797400   3.8576588  89.7633068  43.2007424
   9.7225122  92.2750029  37.1333448  10.1656268  91.5257354  36.7352572
   8.8451632  92.2660165  36.7507180   3.8547870  89.7436374  48.0770611
   4.7557732  89.6042839  47.7854609   3.9295844  89.9090829  49.0168788
   6.3149492  91.3035002  45.4733384   6.7903614  91.4962648  44.6652235
   5.3915058  91.3594188  45.2276767   0.8929709  83.3382846  44.4389217
   1.4111653  84.0743873  44.1135706   0.5384842  83.6446839  45.2735977
   1.1442303  79.7583128  39.9590114   1.4244057  79.0906317  40.5850541
   1.9292910  79.9512224  39.4464778   5.0151161  88.1800762  43.7061689
   5.9668584  88.2798860  43.7273913   4.8454612  87.3879031  44.2159774
   3.0365541  85.2656345  43.8921090   2.4415473  85.5461358  43.1967579
   2.7515238  85.7550246  44.6637831   7.4939239  91.4006882  42.8203989
   7.4615559  90.4622883  43.0063673   8.1039863  91.4790919  42.0869814
   7.6433728  88.1917925  42.8662272   7.1272776  87.4076382  42.6792201
   8.5273676  87.8636642  43.0308791   5.3044455  81.9358941  38.8258085
   5.1069276  81.6274029  39.7101417   5.9144160  82.6620580  38.9556015
  13.3115789  92.4622889  41.9610026  14.0419178  92.2008177  42.5217729
  12.7022735  91.7251611  42.0012094  11.3931086  90.6030751  42.5584477
  10.6664250  90.4686716  41.9500968  10.9778373  90.9107580  43.3641195
   1.0618101  81.8167848  36.5754616   1.6149140  82.2363301  37.2344639
   1.2988188  80.8903596  36.6177572   4.4396908  83.9268373  36.0833280
   3.8595577  84.5853177  35.7011333   4.1732841  83.1045718  35.6720698
   2.8900475  83.3273431  38.2854601   3.3900253  83.4389965  37.4768919
   3.5336083  83.0234483  38.9255409   3.2221786  86.0868463  35.1389629
   2.3347641  86.3718114  34.9209823   3.6375775  85.9262227  34.2916905
   6.5736322  86.1114984  38.8543968   7.3496713  86.6011437  39.1268585
   5.8484457  86.5373038  39.3115837   9.0108881  86.8242603  39.9117908
   9.6053372  86.5838339  39.2011217   9.0835465  86.1049734  40.5391445
   7.0067616  87.3912731  36.1790038   6.7504550  86.9909367  37.0098246
   6.3820484  88.1056525  36.0540177  11.3179954  90.1308804  38.6861330
  10.7579512  90.2001994  39.4592892  10.7123457  89.9549789  37.9660826
  11.8939589  94.2170584  36.4823703  11.1271985  93.6629070  36.6280385
  12.3050294  94.2892453  37.3437855   2.0615621  53.9817484  25.9535088
   1.3079329  53.4124882  25.7979092   2.1963162  53.9480148  26.9005723
   2.4722036  54.1393094  28.6855332   3.2025424  53.8778382  29.2463036
   1.8628981  53.4021816  28.7257400   2.0642219  68.4835523  28.1036592
   2.7020629  68.3642271  27.3999932   1.9463062  69.4316367  28.1624544
   1.6183488  66.2086977  25.1789800   2.4046577  65.7906400  24.8280217
   1.8822192  67.1133069  25.3471448   7.0191915  66.1462210  26.0822779
   7.7517087  65.5761427  26.3160608   6.2631270  65.7583811  26.5229284
   4.5417335  59.8583784  30.5417387   4.2100660  60.7279195  30.3178602
   3.9462948  59.5420068  31.2211418   1.0348855  72.0596330  29.9413300
   0.7349578  72.9621369  29.8329107   0.6899914  71.7928514  30.7934453
   4.4345998  64.5778871  27.6210737   3.5262876  64.5094279  27.3269498
   4.3833594  65.0550815  28.4492563   6.3007645  62.7795309  29.3988611
   5.6582025  63.0727842  28.7528406   5.7962573  62.6648229  30.2041808
   3.9547808  66.5258482  20.0874470   4.8665665  66.7585869  19.9122168
   3.4457455  67.1095526  19.5249549   2.2388576  70.9483110  33.7235763
   2.6471932  70.5065520  32.9790395   1.5165838  70.3735737  33.9769956
   2.5617391  71.5084301  27.4788052   1.9326253  71.6730015  26.7764120
   2.1743053  71.9225910  28.2499016   6.4406623  72.4438738  24.8332416
   5.7557661  72.8237640  24.2829449   6.5250472  73.0534065  25.5664363
   1.7419091  63.5460085  32.7550494   1.4980023  64.3002146  32.2184769
   2.0179022  63.9245433  33.5897741   3.6957554  70.0898697  31.4327759
   3.9074449  70.7330457  30.7562140   3.6487302  69.2561014  30.9649689
   4.8103382  72.9670653  29.6050116   5.6320826  72.5650840  29.3232798
   4.8065785  72.8638887  30.5566232  12.9009375  69.3109401  25.9535088
  12.1473084  68.7416799  25.7979092  13.0356916  69.2772066  26.9005723
   2.0157718  75.0849170  33.7871551   1.9976193  75.9058051  33.2951820
   2.9377638  74.9603245  34.0121692   1.6400467  57.7053366  30.1588701
   1.2964736  58.5955007  30.0827811   2.0079429  57.5155023  29.2958286
   1.6050750  67.6961977  18.6661136   1.0897373  68.4666581  18.9049523
   1.3328058  67.0227113  19.2894197   6.5785024  70.4494331  20.6014309
   5.8014466  70.1105491  20.1569471   7.2576505  70.4546954  19.9269274
   1.3937053  65.5689069  20.4920917   1.0887188  65.8835218  21.3431060
   2.3467495  65.6470489  20.5348250   4.8176331  69.9228313  27.2580917
   4.1600005  70.6127574  27.3461046   5.6216730  70.3124744  27.6014904
   3.6281789  68.2772685  25.3084859   4.1413671  68.9102677  25.8106569
   4.2783013  67.6773881  24.9428219   0.8897668  67.1513556  22.6845880
   1.6369487  67.6634954  22.3753002   1.1589258  66.8297609  23.5450273
   4.3943586  73.2578687  23.4364002   3.9405913  72.4169597  23.4929192
   3.7637552  73.8940085  23.7738782   3.3376505  64.1870673  24.6664669
   2.5999262  63.6748059  24.9974912   3.5903279  63.7471054  23.8547946
   2.8376525  75.0955183  24.3713820   3.1299499  75.6560240  23.6526185
   3.3475145  75.3883744  25.1266979   3.4388132  56.9646925  25.2606438
   3.7447009  56.1044288  24.9732354   4.1640737  57.5564545  25.0605432
   1.2475784  66.3419602  32.3587902   1.6025172  66.5691075  33.2182368
   1.8947915  66.6737979  31.7365158   6.9773521  69.4638038  23.0637231
   6.8391419  69.6539634  22.1358421   6.6209740  70.2257421  23.5205282
   7.0042900  71.5314565  28.0748503   7.4379407  71.4389854  28.9231557
   7.7174481  71.5072065  27.4368519   7.8658450  71.5738266  30.6081388
   8.0594340  72.4784076  30.8540663   7.7659068  71.1145685  31.4419973
   2.9273559  71.7245008  36.1822269   2.7759065  71.4955560  35.2652353
   2.9178238  72.6815610  36.1953614   4.6365765  74.7564131  34.2598751
   4.5778311  74.0723351  33.5929334   5.0385284  75.4983121  33.8079377
   4.6383173  72.7203715  32.4912730   3.7509951  72.3829637  32.6139129
   5.2081724  71.9886746  32.7281496   1.2670756  62.4271567  25.6111000
   1.7639455  61.6741529  25.2912071   0.4957737  62.4635883  25.0454210
   9.1200513  68.1311932  27.2529292   9.1090389  69.0136648  26.8823225
   8.2517893  67.7783483  27.0583829   2.3500536  71.1843254  23.1849424
   1.4156815  71.3044716  23.0154128   2.5277205  70.2815721  22.9209434
   5.7373088  67.0260573  23.7199458   6.2033540  67.8588565  23.6459761
   6.1880588  66.5605555  24.4244717   3.8049319  73.3704394  20.7185610
   4.0809163  73.2560989  21.6279484   2.9353818  72.9721879  20.6797783
   3.7089750  59.3941160  27.7590359   2.7952830  59.6245387  27.9272566
   4.1382852  59.4779604  28.6104392   3.4796209  67.5831052  30.2590253
   2.8267659  67.8306960  29.6042706   3.8576589  66.7695190  29.9252731
   3.1217439  74.4579048  36.8362561   3.6657343  75.0709006  36.3417516
   2.5404284  75.0158627  37.3529574   1.4074952  77.5799766  27.9677589
   1.2826092  76.7789506  27.4588534   2.0654043  78.0745959  27.4791559
   3.4709861  75.3808786  29.5957139   2.5240196  75.2614137  29.5235465
   3.8192634  74.4931284  29.6783400   4.0790416  75.9990061  26.8826364
   5.0036963  75.7932922  26.7450815   3.9105719  75.7506462  27.7915705
   3.8685732  76.5175729  22.2388455   4.0422609  75.9522151  21.4862308
   4.3614623  77.3176623  22.0567945   9.7225123  69.2812152  23.8578755
  10.1656269  68.5319477  23.4597878   8.8451633  69.2722288  23.4752487
   6.7552327  73.2842199  20.8672684   7.2803652  73.6229471  20.1422004
   6.6674680  72.3489214  20.6835819   6.4446234  73.9175102  36.1723882
   5.6541777  73.8999241  35.6328382   6.2079588  74.4563396  36.9272919
   6.5644109  70.7667569  33.4856611   6.6142114  70.6017576  34.4272133
   6.4558032  69.8994828  33.0954491   3.8547871  66.7498497  34.8015917
   4.7557734  66.6104961  34.5099915   3.9295845  66.9152951  35.7414095
   8.0662305  73.1864510  33.7298632   7.7747114  73.5494491  34.5662093
   7.4534437  72.4731518  33.5511964   9.2657988  70.7517390  26.2501202
  10.1004879  71.1907194  26.4138763   9.4017117  70.2756043  25.4309448
   6.3149494  68.3097125  32.1978690   6.7903615  68.5024771  31.3897542
   5.3915059  68.3656311  31.9522074   0.8929710  60.3444968  31.1634524
   1.4111654  61.0805995  30.8381013   0.5384843  60.6508962  31.9981283
   1.1442304  56.7645251  26.6835421   1.4244058  56.0968440  27.3095847
   1.9292911  56.9574346  26.1710085   5.0151163  65.1862885  30.4306996
   5.9668586  65.2860982  30.4519220   4.8454613  64.3941153  30.9405080
   3.0365542  62.2718468  30.6166397   2.4415474  62.5523481  29.9212885
   2.7515239  62.7612369  31.3883138   7.4939240  68.4069004  29.5449295
   7.4615561  67.4685005  29.7308979   8.1039864  68.4853041  28.8115120
   7.6433729  65.1980048  29.5907579   7.1272778  64.4138505  29.4037508
   8.5273677  64.8698765  29.7554098   5.3044456  58.9421063  25.5503391
   5.1069277  58.6336152  26.4346723   5.9144161  59.6682702  25.6801321
  13.3115790  69.4685011  28.6855332  14.0419179  69.2070299  29.2463036
  12.7022736  68.7313733  28.7257400  11.3931087  67.6092874  29.2829783
  10.6664251  67.4748839  28.6746275  10.9778374  67.9169703  30.0886501
   1.0618102  58.8229970  23.2999923   1.6149141  59.2425424  23.9589946
   1.2988189  57.8965718  23.3422879   4.4396910  60.9330496  22.8078587
   3.8595579  61.5915300  22.4256639   4.1732842  60.1107840  22.3966004
   2.8900476  60.3335553  25.0099907   3.3900254  60.4452088  24.2014226
   3.5336084  60.0296606  25.6500716   3.2221788  63.0930586  21.8634935
   2.3347643  63.3780237  21.6455130   3.6375777  62.9324349  21.0162212
   6.5736324  63.1177107  25.5789274   7.3496714  63.6073559  25.8513891
   5.8484458  63.5435161  26.0361144   9.0108882  63.8304726  26.6363215
   9.6053373  63.5900462  25.9256523   9.0835466  63.1111857  27.2636751
   3.1962811  68.6085122  22.0785225   3.1398013  69.0653673  21.2392858
   3.7491154  67.8475806  21.9008068   7.0067617  64.3974854  22.9035345
   6.7504551  63.9971489  23.7343553   6.3820485  65.1118648  22.7785484
  11.3179955  67.1370927  25.4106636  10.7579513  67.2064116  26.1838198
  10.7123458  66.9611912  24.6906132   3.9297591  69.7989903  19.3737755
   3.8746394  69.6334174  18.4326199   3.3043646  70.5065936  19.5299944
   1.2443498  72.1038815  38.6991317   2.1134657  72.2779467  38.3377952
   0.7650249  72.9233232  38.5767047  12.9035974  83.8127441  28.1036592
  13.5414384  83.6934188  27.3999932  12.7856816  84.7608285  28.1624544
   9.7125680  83.7654869  28.0398117   9.3744191  83.6495934  27.1518652
  10.5815448  83.3646034  28.0199123  10.1945463  84.9189721  33.9984322
  10.1834104  84.5242519  33.1264826  10.3566102  84.1855793  34.5918094
   6.9152724  87.7026833  32.9463506   6.6242590  88.6072463  32.8310172
   7.5509708  87.7443360  33.6607576   7.8408931  85.0803681  29.5364866
   8.4372503  84.8559703  28.8221829   7.8983902  84.3388427  30.1390314
  12.4577242  81.5378895  25.1789800  13.2440331  81.1198318  24.8280217
  12.7215946  82.4424987  25.3471448  17.8585669  81.4754128  26.0822779
  18.5910841  80.9053345  26.3160608  17.1025025  81.0875728  26.5229284
   9.4761789  83.8981369  23.2786121   9.1119996  83.3711990  23.9899042
  10.3328905  83.5079838  23.1052606  15.3811090  75.1875702  30.5417387
  15.0494414  76.0571113  30.3178602  14.7856703  74.8711986  31.2211418
  11.8742609  87.3888248  29.9413300  11.5743332  88.2913287  29.8329107
  11.5293669  87.1220431  30.7934453   5.3255091  83.8402045  25.9750004
   4.4005587  83.7078259  26.1827696   5.5739504  84.6196264  26.4719947
  15.2739753  79.9070788  27.6210737  14.3656630  79.8386197  27.3269498
  15.2227349  80.3842733  28.4492563   9.3480619  81.3260434  35.5645634
   8.5713953  81.8854354  35.5548499   9.9871182  81.8117217  36.0860505
  17.1401399  78.1087227  29.3988611  16.4975779  78.4019760  28.7528406
  16.6356328  77.9940147  30.2041808  14.7941563  81.8550400  20.0874470
  15.7059419  82.0877787  19.9122168  14.2851210  82.4387444  19.5249549
   7.6026991  84.1345887  35.1263601   8.3441675  84.6730931  34.8498425
   6.8963976  84.7612176  35.2835153  13.0782331  86.2775028  33.7235763
  13.4865687  85.8357438  32.9790395  12.3559592  85.7027655  33.9769956
   9.4313401  81.2147634  31.0969320  10.2774596  81.6387048  31.2403969
   9.3712038  80.5581259  31.7907883  13.4011145  86.8376218  27.4788052
  12.7720008  87.0021932  26.7764120  13.0136807  87.2517828  28.2499016
  17.2800377  87.7730656  24.8332416  16.5951415  88.1529557  24.2829449
  17.3644226  88.3825983  25.5664363  12.5812846  78.8752003  32.7550494
  12.3373778  79.6294063  32.2184769  12.8572776  79.2537350  33.5897741
  14.5351309  85.4190615  31.4327759  14.7468204  86.0622375  30.7562140
  14.4881057  84.5852932  30.9649689  12.1377538  78.0308436  28.3364331
  11.2762017  78.3289689  28.6281069  12.1639972  78.2478835  27.4045364
   8.9539107  86.5750626  24.7438137   9.4177453  86.8538329  23.9542759
   8.6895905  85.6734071  24.5611228   5.8463188  86.1222108  27.6817900
   6.4164545  86.5509376  27.0435385   6.4371300  85.8404693  28.3802086
   7.8907993  82.6973779  21.5527702   8.5932036  83.1494822  22.0201628
   7.5588622  82.0557598  22.1807595   6.3388355  81.2885535  35.9278911
   5.7087015  81.9701816  36.1614308   6.2324443  81.1768617  34.9832050
   1.6333327  80.9557331  26.8544836   0.8432381  81.2114860  26.3784946
   2.1244574  81.7705669  26.9596876  15.6497137  88.2962571  29.6050116
  16.4714580  87.8942758  29.3232798  15.6459540  88.1930805  30.5566232
   9.4153740  87.8446614  31.7610827   9.4798173  88.3067021  32.5968999
   8.7064664  87.2143979  31.8893137  23.7403130  84.6401319  25.9535088
  22.9866838  84.0708717  25.7979092  23.8750671  84.6063984  26.9005723
   5.6169097  75.5906301  38.2904163   5.2236043  75.0372500  38.9651807
   6.4335238  75.9016880  38.6810680   8.5337058  77.0064180  35.8824419
   9.2746772  77.6071333  35.8028882   8.7654981  76.2641818  35.3242462
   3.6778396  82.1920548  34.1602649   3.5631912  81.2905805  34.4609748
   2.8222914  82.4384244  33.8087465  10.7570234  90.1338288  35.7590149
  10.3134088  89.3474666  35.4411054  11.4187448  90.3217438  35.0934040
   5.5157355  91.6634089  30.2850828   6.0664780  91.5351153  29.5127822
   4.6768831  91.9628978  29.9345721  12.8551472  90.4141088  33.7871551
  12.8369948  91.2349969  33.2951820  13.7771392  90.2895163  34.0121692
   9.3124526  87.9285217  34.6295059   9.8452863  87.1673505  34.3994367
   8.7838607  87.6358869  35.3719213  12.4794221  73.0345283  30.1588701
  12.1358491  73.9246925  30.0827811  12.8473184  72.8446941  29.2958286
  12.4444504  83.0253894  18.6661136  11.9291127  83.7958499  18.9049523
  12.1721812  82.3519030  19.2894197  10.0291615  77.8703595  23.7246374
   9.1733211  77.4810445  23.5452013  10.4418567  77.9495556  22.8646160
  11.5590762  75.4049938  28.1237934  11.0555557  75.3680074  27.3105739
  11.8521369  76.3142681  28.1834591   7.8033648  75.4888668  27.1304116
   8.6686644  75.2931477  26.7710005   7.8711157  75.2599020  28.0573472
  17.4178778  85.7786249  20.6014309  16.6408221  85.4397408  20.1569471
  18.0970259  85.7838872  19.9269274  12.2330807  80.8980986  20.4920917
  11.9280943  81.2127136  21.3431060  13.1861249  80.9762406  20.5348250
  15.6570085  85.2520230  27.2580917  14.9993760  85.9419492  27.3461046
  16.4610484  85.6416662  27.6014904   5.4095967  77.7190876  24.5020483
   5.9839719  77.4966058  23.7693675   5.9966949  77.7879571  25.2549084
  14.4675544  83.6064603  25.3084859  14.9807426  84.2394595  25.8106569
  15.1176768  83.0065798  24.9428219   7.7118634  74.5932125  23.2295552
   7.0583047  74.2781142  22.6052167   7.6699109  73.9707865  23.9555375
  10.9456375  81.0814058  27.5543200  10.0278936  81.3029005  27.3964888
  11.3616518  81.1560369  26.6954907  11.7291423  82.4805474  22.6845880
  12.4763241  82.9926871  22.3753002  11.9983012  82.1589527  23.5450273
  15.2337340  88.5870604  23.4364002  14.7799667  87.7461514  23.4929192
  14.6031307  89.2232003  23.7738782  14.1770260  79.5162590  24.6664669
  13.4393016  79.0039977  24.9974912  14.4297033  79.0762972  23.8547946
  13.6770279  90.4247101  24.3713820  13.9693254  90.9852158  23.6526185
  14.1868900  90.7175662  25.1266979  14.2781887  72.2938842  25.2606438
  14.5840764  71.4336206  24.9732354  15.0034492  72.8856463  25.0605432
   8.5502967  82.5892635  25.7682630   8.6051577  81.6366472  25.6925106
   7.7394169  82.7452075  26.2523928   6.4895327  81.2069695  23.5273008
   5.6763192  81.5063866  23.9338201   6.9854321  80.8125384  24.2447491
  12.0869538  81.6711520  32.3587902  12.4418926  81.8982993  33.2182368
  12.7341670  82.0029896  31.7365158  17.8167275  84.7929956  23.0637231
  17.6785174  84.9831552  22.1358421  17.4603494  85.5549338  23.5205282
   5.9809401  78.7788051  29.1434243   6.6208781  78.6376810  28.4457207
   5.1486932  78.4922564  28.7672845  17.8436655  86.8606483  28.0748503
  18.2773162  86.7681772  28.9231557  18.5568236  86.8363983  27.4368519
  11.5764550  90.4608577  29.6081603  11.6301572  91.0299513  30.3759319
  10.7079331  90.6310462  29.2435641   2.9838018  78.7488376  23.9207230
   3.2444835  79.6633709  23.8116391   3.8055190  78.2812818  24.0703843
   4.4562943  80.1626133  31.0906055   5.1285997  79.9543495  30.4418704
   3.6292730  79.9648219  30.6511287  18.7052204  86.9030183  30.6081388
  18.8988095  87.8075994  30.8540663  18.6052823  86.4437602  31.4419973
  10.3588515  76.7888074  33.1071716   9.7116430  77.4878023  33.0136192
  11.1289531  77.2224218  33.4747964  13.7667313  87.0536926  36.1822269
  13.6152820  86.8247478  35.2652353  13.7571993  88.0107527  36.1953614
  10.5352650  84.6268839  31.1668535  11.4644710  84.7779998  30.9937503
  10.1143680  84.7152860  30.3117182   9.3340981  88.6519503  28.9367073
   9.1952067  88.2838288  29.8093011   8.5455578  89.1667143  28.7651031
  10.8846196  88.0301106  26.3255911  10.5496029  87.9901876  27.2213561
  10.3850142  87.3645822  25.8526321   4.8590440  83.4368736  31.8508492
   4.7210238  82.7048975  32.4520031   5.7695364  83.3477636  31.5692680
   7.4872741  83.1488695  31.3392171   8.1972360  82.5081887  31.2978790
   7.4442049  83.4001590  32.2618352  15.4759520  90.0856049  34.2598751
  15.4172066  89.4015269  33.5929334  15.8779038  90.8275039  33.8079377
   6.2001675  80.1353913  33.1587811   5.6639032  79.6844652  33.8109407
   5.6118384  80.2699822  32.4158275  15.4776927  88.0495632  32.4912730
  14.5903706  87.7121554  32.6139129  16.0475478  87.3178664  32.7281496
   1.9340796  79.2709921  30.2440805   1.8498985  78.6635590  29.5091215
   1.1123503  79.7618939  30.2450302   9.0078080  92.7097085  29.4573974
   8.9348252  93.5152056  29.9693278   8.5655474  92.9089051  28.6321995
  12.1064510  77.7563484  25.6111000  12.6033210  77.0033447  25.2912071
  11.3351492  77.7927801  25.0454210  19.9594268  83.4603850  27.2529292
  19.9484144  84.3428565  26.8823225  19.0911647  83.1075401  27.0583829
  11.4676764  92.6083919  31.6132132  12.1804736  93.2431384  31.5408034
  10.9766793  92.7047785  30.7972134  13.1894291  86.5135172  23.1849424
  12.2550570  86.6336634  23.0154128  13.3670959  85.6107638  22.9209434
   8.6899479  79.8980867  25.3382685   8.3197266  79.3451908  26.0263591
   9.1858571  79.2939001  24.7857685  16.5766842  82.3552491  23.7199458
  17.0427294  83.1880482  23.6459761  17.0274343  81.8897472  24.4244717
   6.5188677  90.3578362  32.4337703   7.2198137  90.9914845  32.5867097
   6.0483792  90.6993094  31.6733342  14.6443073  88.6996312  20.7185610
  14.9202917  88.5852907  21.6279484  13.7747572  88.3013797  20.6797783
  14.5483505  74.7233078  27.7590359  13.6346585  74.9537305  27.9272566
  14.9776606  74.8071522  28.6104392  14.3189963  82.9122970  30.2590253
  13.6661414  83.1598877  29.6042706  14.6970343  82.0987108  29.9252731
  11.2797137  92.9482663  24.3618424  11.4619532  92.1304319  24.8246176
  12.1030123  93.1650355  23.9243314  10.3677536  83.6542781  36.7456290
   9.6918173  83.5536910  37.4158666  11.1905170  83.4981995  37.2092288
   4.0864813  77.3084858  31.5835791   4.1506139  78.1699689  31.1713189
   4.0231933  76.6958860  30.8508150   3.5617085  79.3807991  35.2308825
   4.1889124  78.9985068  35.8446350   2.7045004  79.1622193  35.5964518
  13.9611194  89.7870966  36.8362561  14.5051098  90.4000924  36.3417516
  13.3798039  90.3450544  37.3529574  12.2468707  92.9091684  27.9677589
  12.1219846  92.1081424  27.4588534  12.9047798  93.4037877  27.4791559
   3.8676875  79.2640416  27.1454729   3.1463461  79.8776384  27.0062202
   4.6570131  79.7998181  27.0671375  14.3103615  90.7100704  29.5957139
  13.3633951  90.5906055  29.5235465  14.6586388  89.8223202  29.6783400
   6.6703188  76.5994843  33.4195381   7.1937590  76.8457139  34.1821690
   6.4515522  77.4314878  32.9998518  11.3150048  90.5053420  25.7961491
  11.1675011  89.5770128  25.9769061  12.1403542  90.5273511  25.3118566
  14.9184170  91.3281979  26.8826364  15.8430718  91.1224840  26.7450815
  14.7499474  91.0798380  27.7915705   7.8755733  77.5408538  31.1045051
   7.5352554  76.7416351  31.5065731   7.1694740  77.8410249  30.5321884
   8.5272205  74.6257850  29.5572374   9.3498275  74.1518329  29.4351264
   8.7710269  75.4048334  30.0571060   7.1680440  77.6546109  19.8535276
   7.8888802  78.0327362  19.3498993   6.5445744  78.3734986  19.9570254
  11.3111563  78.3591258  20.7893608  11.5275177  79.2415896  20.4882436
  10.8305630  77.9677471  20.0599250   6.0510784  81.3176971  27.3664353
   5.9055365  81.6317274  28.2588634   5.5735988  81.9361871  26.8135251
   7.9107167  78.3079519  27.4145242   7.8968736  77.4120612  27.0777540
   8.6279595  78.3150183  28.0483528   9.7633298  78.7416859  29.4598370
   9.5051075  79.6633930  29.4582700   9.2318338  78.3447294  30.1498834
  14.7079486  91.8467646  22.2388455  14.8816364  91.2814069  21.4862308
  15.2008378  92.6468541  22.0567945   7.3144063  77.1893899  22.6832812
   7.4359974  76.2610545  22.8823700   7.0246105  77.2032585  21.7711128
  10.1835253  74.8748810  25.8199532  10.2056950  74.9388143  24.8651512
  10.6003312  74.0353318  26.0140038  20.5618878  84.6104069  23.8578755
  21.0050024  83.8611394  23.4597878  19.6845388  84.6014206  23.4752487
   1.3122468  82.9852212  33.1982171   0.5704204  83.1334847  33.7846801
   0.9915212  83.2460477  32.3348920  17.5946082  88.6134116  20.8672684
  18.1197406  88.9521389  20.1422004  17.5068435  87.6781132  20.6835819
   9.2566131  92.5268190  32.9962561   9.5653257  92.2817337  33.8685260
  10.0541613  92.7314828  32.5081431   6.7260615  90.2244109  27.2990239
   6.1040624  89.5614814  26.9992467   7.3965482  90.2505240  26.6163887
   6.7985142  78.7025897  36.8922745   6.8473298  79.5788019  36.5100515
   7.3407657  78.1603290  36.3194388  17.2839988  89.2467020  36.1723882
  16.4935532  89.2291159  35.6328382  17.0473343  89.7855314  36.9272919
  17.4037863  86.0959486  33.4856611  17.4535868  85.9309494  34.4272133
  17.2951786  85.2286745  33.0954491  14.6941625  82.0790414  34.8015917
  15.5951488  81.9396879  34.5099915  14.7689600  82.2444869  35.7414095
   9.0284431  79.4557269  33.6469104   8.1587740  79.7490835  33.3751692
   9.2643911  80.0397714  34.3676367  20.1051742  86.0809308  26.2501202
  20.9398634  86.5199112  26.4138763  20.2410871  85.6047961  25.4309448
  17.1543248  83.6389042  32.1978690  17.6297370  83.8316689  31.3897542
  16.2308814  83.6948228  31.9522074  11.7323465  75.6736886  31.1634524
  12.2505409  76.4097913  30.8381013  11.3778597  75.9800879  31.9981283
  11.9836059  72.0937168  26.6835421  12.2637813  71.4260358  27.3095847
  12.7686666  72.2866264  26.1710085  15.8544917  80.5154802  30.4306996
  16.8062340  80.6152900  30.4519220  15.6848368  79.7233071  30.9405080
  13.8759297  77.6010386  30.6166397  13.2809229  77.8815398  29.9212885
  13.5908993  78.0904287  31.3883138  18.3332995  83.7360922  29.5449295
  18.3009315  82.7976923  29.7308979  18.9433619  83.8144959  28.8115120
  18.4827483  80.5271966  29.5907579  17.9666532  79.7430422  29.4037508
  19.3667432  80.1990682  29.7554098  16.1438210  74.2712981  25.5503391
  15.9463031  73.9628069  26.4346723  16.7537916  74.9974620  25.6801321
  24.1509545  84.7976929  28.6855332  24.8812933  84.5362217  29.2463036
  23.5416490  84.0605651  28.7257400  22.2324842  82.9384792  29.2829783
  21.5058005  82.8040757  28.6746275  21.8172129  83.2461620  30.0886501
  10.0555018  86.6574721  37.0477156  10.9758028  86.8353320  37.2417203
  10.0204601  85.7130767  36.8956856   3.0517091  84.5675756  29.6899938
   3.2703101  85.4992864  29.7087971   3.4642865  84.2083730  30.4754741
   9.9721309  75.0743841  21.6775626   9.1622037  74.7290926  22.0530872
  10.6605726  74.7651385  22.2663238  11.9011857  74.1521888  23.2999923
  12.4542896  74.5717341  23.9589946  12.1381943  73.2257636  23.3422879
   7.9244956  80.1408962  39.0802687   7.8241683  81.0903319  39.0114778
   7.7066498  79.8127201  38.2078757  15.2790664  76.2622413  22.8078587
  14.6989333  76.9207217  22.4256639  15.0126597  75.4399758  22.3966004
  13.7294230  75.6627471  25.0099907  14.2294009  75.7744005  24.2014226
  14.3729838  75.3588524  25.6500716   7.7876226  83.5706101  37.8967748
   7.3043308  84.3706461  38.1031637   7.8737165  83.5814045  36.9435192
   3.7149564  87.4610635  29.9336182   4.6692817  87.4294578  29.8666114
   3.5162087  87.0001259  30.7486408   4.3048946  86.0311751  32.5006980
   5.1241835  86.5255830  32.5241817   4.5785754  85.1143719  32.4724547
  14.0615542  78.4222504  21.8634935  13.1741397  78.7072154  21.6455130
  14.4769531  78.2616267  21.0162212  17.4130078  78.4469025  25.5789274
  18.1890468  78.9365477  25.8513891  16.6878212  78.8727079  26.0361144
  19.8502637  79.1596644  26.6363215  20.4447128  78.9192380  25.9256523
  19.9229221  78.4403774  27.2636751  14.0356566  83.9377040  22.0785225
  13.9791767  84.3945591  21.2392858  14.5884908  83.1767724  21.9008068
  17.8461372  79.7266771  22.9035345  17.5898306  79.3263407  23.7343553
  17.2214240  80.4410565  22.7785484  22.1573710  82.4662845  25.4106636
  21.5973268  82.5356034  26.1838198  21.5517213  82.2903829  24.6906132
  14.7691345  85.1281821  19.3737755  14.7140149  84.9626092  18.4326199
  14.1437400  85.8357854  19.5299944  12.0837252  87.4330733  38.6991317
  12.9528412  87.6071385  38.3377952  11.6044004  88.2525149  38.5767047
   8.0787471  74.6289930  18.9523073   8.0666140  75.5731770  19.1091344
   8.9710892  74.4460075  18.6582534  11.8939590  71.2232706  23.2069010
  11.1271986  70.6691193  23.3525692  12.3050295  71.2954575  24.0683161
   3.8981351  77.5117502  37.2974191   4.7612813  77.1554307  37.5077516
   3.3246762  77.1731397  37.9849595  23.2970997  96.8670812  25.1789800
  24.0834086  96.4490236  24.8280217  23.5609701  97.7716905  25.3471448
  28.6979424  96.8046046  26.0822779  29.4304596  96.2345262  26.3160608
  27.9418779  96.4167646  26.5229284  26.2204844  90.5167620  30.5417387
  25.8888169  91.3863031  30.3178602  25.6250457  90.2003904  31.2211418
  26.1133507  95.2362706  27.6210737  25.2050385  95.1678114  27.3269498
  26.0621103  95.7134651  28.4492563  20.1874373  96.6552351  35.5645634
  19.4107707  97.2146272  35.5548499  20.8264936  97.1409134  36.0860505
  27.9795154  93.4379144  29.3988611  27.3369534  93.7311677  28.7528406
  27.4750082  93.3232065  30.2041808  25.6335317  97.1842317  20.0874470
  26.5453173  97.4169704  19.9122168  25.1244964  97.7679362  19.5249549
  20.2707155  96.5439552  31.0969320  21.1168350  96.9678966  31.2403969
  20.2105793  95.8873176  31.7907883  23.4206600  94.2043920  32.7550494
  23.1767532  94.9585981  32.2184769  23.6966531  94.5829268  33.5897741
  22.9771292  93.3600353  28.3364331  22.1155771  93.6581607  28.6281069
  23.0033727  93.5770752  27.4045364  34.5796884  99.9693237  25.9535088
  33.8260593  99.4000635  25.7979092  34.7144425  99.9355901  26.9005723
  16.4562852  90.9198219  38.2904163  16.0629797  90.3664417  38.9651807
  17.2728992  91.2308797  38.6810680  19.3730813  92.3356098  35.8824419
  20.1140526  92.9363251  35.8028882  19.6048736  91.5933736  35.3242462
  23.3187976  88.3637201  30.1588701  22.9752245  89.2538843  30.0827811
  23.6866938  88.1738859  29.2958286  20.8685370  93.1995513  23.7246374
  20.0126966  92.8102363  23.5452013  21.2812321  93.2787474  22.8646160
  22.3984516  90.7341856  28.1237934  21.8949312  90.6971991  27.3105739
  22.6915123  91.6434599  28.1834591  18.6427402  90.8180586  27.1304116
  19.5080399  90.6223394  26.7710005  18.7104911  90.5890938  28.0573472
  23.0724562  96.2272904  20.4920917  22.7674697  96.5419053  21.3431060
  24.0255004  96.3054324  20.5348250  16.2489721  93.0482794  24.5020483
  16.8233473  92.8257975  23.7693675  16.8360704  93.1171488  25.2549084
  25.3069298  98.9356521  25.3084859  25.8201180  99.5686512  25.8106569
  25.9570522  98.3357716  24.9428219  18.5512389  89.9224043  23.2295552
  17.8976801  89.6073060  22.6052167  18.5092863  89.2999783  23.9555375
  21.7850129  96.4105976  27.5543200  20.8672691  96.6320923  27.3964888
  22.2010273  96.4852287  26.6954907  22.5685177  97.8097392  22.6845880
  23.3156996  98.3218789  22.3753002  22.8376767  97.4881445  23.5450273
  25.0164014  94.8454508  24.6664669  24.2786771  94.3331894  24.9974912
  25.2690788  94.4054890  23.8547946  25.1175641  87.6230760  25.2606438
  25.4234518  86.7628123  24.9732354  25.8428246  88.2148380  25.0605432
  22.9263293  97.0003437  32.3587902  23.2812681  97.2274910  33.2182368
  23.5735424  97.3321814  31.7365158  16.8203156  94.1079968  29.1434243
  17.4602535  93.9668728  28.4457207  15.9880686  93.8214482  28.7672845
  13.8231772  94.0780293  23.9207230  14.0838590  94.9925627  23.8116391
  14.6448945  93.6104736  24.0703843  15.2956698  95.4918051  31.0906055
  15.9679751  95.2835413  30.4418704  14.4686484  95.2940137  30.6511287
  21.1982270  92.1179991  33.1071716  20.5510185  92.8169941  33.0136192
  21.9683285  92.5516135  33.4747964  17.0395430  95.4645831  33.1587811
  16.5032787  95.0136569  33.8109407  16.4512138  95.5991740  32.4158275
  22.9458265  93.0855402  25.6111000  23.4426964  92.3325364  25.2912071
  22.1745246  93.1219719  25.0454210  30.7988022  98.7895768  27.2529292
  30.7877898  99.6720483  26.8823225  29.9305401  98.4367318  27.0583829
  19.5293233  95.2272785  25.3382685  19.1591021  94.6743825  26.0263591
  20.0252326  94.6230918  24.7857685  27.4160597  97.6844408  23.7199458
  27.8821049  98.5172400  23.6459761  27.8668097  97.2189390  24.4244717
  25.3877259  90.0524995  27.7590359  24.4740339  90.2829222  27.9272566
  25.8170361  90.1363440  28.6104392  25.1583718  98.2414887  30.2590253
  24.5055168  98.4890795  29.6042706  25.5364098  97.4279026  29.9252731
  14.9258567  92.6376776  31.5835791  14.9899894  93.4991607  31.1713189
  14.8625687  92.0250777  30.8508150  14.4010840  94.7099908  35.2308825
  15.0282878  94.3276986  35.8446350  13.5438758  94.4914110  35.5964518
  14.7070629  94.5932334  27.1454729  13.9857215  95.2068302  27.0062202
  15.4963885  95.1290099  27.0671375  17.5096943  91.9286760  33.4195381
  18.0331345  92.1749057  34.1821690  17.2909276  92.7606795  32.9998518
  18.7149488  92.8700456  31.1045051  18.3746308  92.0708269  31.5065731
  18.0088494  93.1702166  30.5321884  19.3665960  89.9549768  29.5572374
  20.1892029  89.4810246  29.4351264  19.6104023  90.7340252  30.0571060
  18.0074194  92.9838026  19.8535276  18.7282557  93.3619279  19.3498993
  17.3839498  93.7026903  19.9570254  22.1505317  93.6883175  20.7893608
  22.3668932  94.5707813  20.4882436  21.6699384  93.2969389  20.0599250
  18.7500921  93.6371437  27.4145242  18.7362490  92.7412530  27.0777540
  19.4673349  93.6442100  28.0483528  20.6027052  94.0708777  29.4598370
  20.3444830  94.9925847  29.4582700  20.0712092  93.6739211  30.1498834
  18.1537817  92.5185817  22.6832812  18.2753729  91.5902463  22.8823700
  17.8639860  92.5324503  21.7711128  21.0229008  90.2040727  25.8199532
  21.0450705  90.2680060  24.8651512  21.4397067  89.3645236  26.0140038
  31.4012632  99.9395987  23.8578755  31.8443778  99.1903312  23.4597878
  30.5239142  99.9306123  23.4752487  17.6378897  94.0317814  36.8922745
  17.6867052  94.9079937  36.5100515  18.1801411  93.4895207  36.3194388
  25.5335380  97.4082332  34.8015917  26.4345243  97.2688797  34.5099915
  25.6083354  97.5736787  35.7414095  19.8678185  94.7849187  33.6469104
  18.9981495  95.0782753  33.3751692  20.1037666  95.3689632  34.3676367
  27.9937003  98.9680960  32.1978690  28.4691124  99.1608606  31.3897542
  27.0702568  99.0240146  31.9522074  22.5717219  91.0028804  31.1634524
  23.0899163  91.7389831  30.8381013  22.2172352  91.3092797  31.9981283
  22.8229813  87.4229086  26.6835421  23.1031567  86.7552275  27.3095847
  23.6080420  87.6158182  26.1710085  26.6938672  95.8446720  30.4306996
  27.6456095  95.9444818  30.4519220  26.5242122  95.0524989  30.9405080
  24.7153051  92.9302303  30.6166397  24.1202983  93.2107316  29.9212885
  24.4302748  93.4196204  31.3883138  29.1726749  99.0652840  29.5449295
  29.1403070  98.1268841  29.7308979  29.7827373  99.1436877  28.8115120
  29.3221238  95.8563883  29.5907579  28.8060287  95.0722340  29.4037508
  30.2061186  95.5282600  29.7554098  26.9831965  89.6004899  25.5503391
  26.7856786  89.2919987  26.4346723  27.5931670  90.3266538  25.6801321
  34.9903299 100.1268847  28.6855332  35.7206688  99.8654135  29.2463036
  34.3810245  99.3897569  28.7257400  33.0718596  98.2676709  29.2829783
  32.3451760  98.1332674  28.6746275  32.6565883  98.5753538  30.0886501
  20.8115063  90.4035759  21.6775626  20.0015791  90.0582844  22.0530872
  21.4999480  90.0943303  22.2663238  22.7405611  89.4813806  23.2999923
  23.2936650  89.9009259  23.9589946  22.9775698  88.5549554  23.3422879
  18.7638711  95.4700879  39.0802687  18.6635438  96.4195236  39.0114778
  18.5460253  95.1419118  38.2078757  26.1184419  91.5914331  22.8078587
  25.5383088  92.2499135  22.4256639  25.8520351  90.7691675  22.3966004
  24.5687985  90.9919389  25.0099907  25.0687763  91.1035923  24.2014226
  25.2123593  90.6880441  25.6500716  24.9009297  93.7514421  21.8634935
  24.0135152  94.0364072  21.6455130  25.3163286  93.5908185  21.0162212
  28.2523833  93.7760942  25.5789274  29.0284223  94.2657395  25.8513891
  27.5271967  94.2018996  26.0361144  30.6896391  94.4888561  26.6363215
  31.2840882  94.2484297  25.9256523  30.7622975  93.7695692  27.2636751
  28.6855126  95.0558689  22.9035345  28.4292060  94.6555325  23.7343553
  28.0607994  95.7702483  22.7785484  32.9967464  97.7954762  25.4106636
  32.4367022  97.8647952  26.1838198  32.3910967  97.6195747  24.6906132
  18.9181225  89.9581847  18.9523073  18.9059895  90.9023687  19.1091344
  19.8104647  89.7751993  18.6582534  22.7333345  86.5524624  23.2069010
  21.9665740  85.9983111  23.3525692  23.1444050  86.6246493  24.0683161
  14.7375106  92.8409420  37.2974191  15.6006567  92.4846225  37.5077516
  14.1640516  92.5023315  37.9849595  33.5727099 101.8816542  23.2069010
  32.8059495 101.3275028  23.3525692  33.9837804 101.9538411  24.0683161
   2.0642220  45.4897646  14.8281899   2.7020630  45.3704393  14.1245239
   1.9463063  46.4378490  14.8869851   1.0348856  49.0658453  16.6658607
   0.7349579  49.9683492  16.5574414   0.6899915  48.7990636  17.5179759
   2.2388577  47.9545233  20.4481070   2.6471933  47.5127643  19.7035702
   1.5165839  47.3797860  20.7015262   2.5617392  48.5146423  14.2033358
   1.9326254  48.6792137  13.5009426   2.1743054  48.9288033  14.9744323
   6.4406624  49.4500861  11.5577722   5.7557662  49.8299762  11.0074756
   6.5250473  50.0596188  12.2909670   1.7419093  40.5522208  19.4795800
   1.4980025  41.3064268  18.9430076   2.0179023  40.9307555  20.3143047
   3.6957555  47.0960820  18.1573066   3.9074451  47.7392580  17.4807447
   3.6487304  46.2623137  17.6894996   4.8103383  49.9732775  16.3295423
   5.6320827  49.5712963  16.0478105   4.8065786  49.8701010  17.2811539
  12.9009376  46.3171524  12.6780395  12.1473085  45.7478922  12.5224399
  13.0356918  46.2834188  13.6251029   2.0157719  52.0911293  20.5116857
   1.9976194  52.9120174  20.0197126   2.9377639  51.9665368  20.7366998
   4.8176332  46.9290435  13.9826224   4.1600006  47.6189697  14.0706353
   5.6216731  47.3186867  14.3260210   2.8376526  52.1017306  11.0959126
   3.1299500  52.6622363  10.3771492   3.3475147  52.3945867  11.8512286
   1.2475785  43.3481725  19.0833209   1.6025173  43.5753198  19.9427675
   1.8947916  43.6800101  18.4610464   7.0042902  48.5376687  14.7993809
   7.4379408  48.4451977  15.6476863   7.7174482  48.5134188  14.1613825
   7.8658451  48.5800388  17.3326695   8.0594341  49.4846199  17.5785970
   7.7659069  48.1207807  18.1665280   2.9273560  48.7307131  22.9067575
   2.7759066  48.5017683  21.9897659   2.9178239  49.6877732  22.9198920
   4.6365767  51.7626253  20.9844057   4.5778313  51.0785474  20.3174640
   5.0385285  52.5045243  20.5324683   4.6383174  49.7265837  19.2158037
   3.7509953  49.3891759  19.3384436   5.2081725  48.9948869  19.4526802
   9.1200514  45.1374055  13.9774599   9.1090391  46.0198770  13.6068532
   8.2517894  44.7845606  13.7829136   3.4796210  44.5893175  16.9835560
   2.8267660  44.8369082  16.3288013   3.8576590  43.7757313  16.6498037
   3.1217440  51.4641171  23.5607868   3.6657344  52.0771129  23.0662822
   2.5404285  52.0220749  24.0774881   1.4074953  54.5861889  14.6922895
   1.2826093  53.7851629  14.1833841   2.0654045  55.0808082  14.2036865
   3.4709862  52.3870909  16.3202445   2.5240197  52.2676260  16.2480772
   3.8192635  51.4993407  16.4028707   4.0790417  53.0052184  13.6071670
   5.0036964  52.7995045  13.4696121   3.9105720  52.7568585  14.5161012
   6.4446235  50.9237225  22.8969189   5.6541779  50.9061364  22.3573688
   6.2079589  51.4625518  23.6518225   6.5644110  47.7729691  20.2101917
   6.6142115  47.6079699  21.1517440   6.4558033  46.9056950  19.8199798
   3.8547872  43.7560619  21.5261224   4.7557735  43.6167084  21.2345222
   3.9295847  43.9215074  22.4659401   8.0662307  50.1926633  20.4543939
   7.7747115  50.5556613  21.2907400   7.4534438  49.4793641  20.2757271
   9.2657989  47.7579512  12.9746509  10.1004880  48.1969317  13.1384069
   9.4017118  47.2818166  12.1554755   6.3149495  45.3159247  18.9223997
   6.7903617  45.5086894  18.1142848   5.3915060  45.3718433  18.6767381
   5.0151164  42.1925007  17.1552302   5.9668587  42.2923105  17.1764527
   4.8454614  41.4003276  17.6650387   7.4939242  45.4131127  16.2694602
   7.4615562  44.4747128  16.4554286   8.1039865  45.4915164  15.5360427
   7.6433730  42.2042170  16.3152885   7.1272779  41.4200627  16.1282814
   8.5273679  41.8760887  16.4799405  13.3115792  46.4747134  15.4100639
  14.0419180  46.2132422  15.9708342  12.7022737  45.7375856  15.4502707
  11.3931089  44.6154996  16.0075090  10.6664252  44.4810961  15.3991582
  10.9778376  44.9231825  16.8131808  11.3179956  44.1433050  12.1351943
  10.7579514  44.2126239  12.9083505  10.7123460  43.9674034  11.4151439
   1.2443499  49.1100938  25.4236624   2.1134659  49.2841590  25.0623259
   0.7650251  49.9295354  25.3012353  12.9035975  60.8189563  14.8281899
  13.5414385  60.6996311  14.1245239  12.7856818  61.7670407  14.8869851
   9.7125681  60.7716992  14.7643423   9.3744193  60.6558056  13.8763958
  10.5815449  60.3708157  14.7444429  10.1945464  61.9251843  20.7229629
  10.1834105  61.5304642  19.8510133  10.3566104  61.1917916  21.3163400
   6.9152725  64.7088955  19.6708813   6.6242591  65.6134586  19.5555479
   7.5509710  64.7505483  20.3852882   7.8408932  62.0865804  16.2610172
   8.4372504  61.8621826  15.5467135   7.8983904  61.3450549  16.8635620
  12.4577243  58.5441017  11.9035107  13.2440333  58.1260440  11.5525524
  12.7215948  59.4487110  12.0716755  17.8585670  58.4816251  12.8068085
  18.5910842  57.9115467  13.0405915  17.1025026  58.0937851  13.2474591
   9.4761790  60.9043492  10.0031428   9.1119997  60.3774113  10.7144349
  10.3328906  60.5141961   9.8297913  15.3811091  52.1937825  17.2662694
  15.0494416  53.0633236  17.0423909  14.7856704  51.8774109  17.9456724
  11.8742610  64.3950371  16.6658607  11.5743333  65.2975409  16.5574414
  11.5293670  64.1282554  17.5179759   5.3255092  60.8464167  12.6995311
   4.4005588  60.7140382  12.9073003   5.5739505  61.6258387  13.1965253
  15.2739754  56.9132911  14.3456044  14.3656631  56.8448319  14.0514805
  15.2227350  57.3904856  15.1737869   9.3480620  58.3322556  22.2890941
   8.5713954  58.8916477  22.2793806   9.9871183  58.8179339  22.8105811
  17.1401400  55.1149349  16.1233918  16.4975781  55.4081882  15.4773712
  16.6356329  55.0002270  16.9287114  14.7941564  58.8612522   6.8119777
  15.7059420  59.0939909   6.6367475  14.2851211  59.4449567   6.2494856
   7.6026992  61.1408010  21.8508908   8.3441677  61.6793054  21.5743732
   6.8963978  61.7674299  22.0080460  13.0782332  63.2837150  20.4481070
  13.4865688  62.8419561  19.7035702  12.3559593  62.7089778  20.7015262
   9.4313402  58.2209757  17.8214627  10.2774597  58.6449171  17.9649276
   9.3712040  57.5643381  18.5153190  13.4011146  63.8438341  14.2033358
  12.7720009  64.0084055  13.5009426  13.0136809  64.2579950  14.9744323
  17.2800378  64.7792779  11.5577722  16.5951417  65.1591680  11.0074756
  17.3644228  65.3888105  12.2909670  12.5812847  55.8814125  19.4795800
  12.3373779  56.6356186  18.9430076  12.8572778  56.2599473  20.3143047
  14.5351310  62.4252738  18.1573066  14.7468205  63.0684498  17.4807447
  14.4881058  61.5915054  17.6894996  12.1377539  55.0370558  15.0609638
  11.2762018  55.3351812  15.3526375  12.1639974  55.2540957  14.1290671
   8.9539108  63.5812749  11.4683444   9.4177454  63.8600452  10.6788066
   8.6895906  62.6796194  11.2856534   5.8463189  63.1284230  14.4063207
   6.4164546  63.5571499  13.7680691   6.4371301  62.8466815  15.1047392
   7.8907994  59.7035901   8.2773009   8.5932038  60.1556945   8.7446935
   7.5588623  59.0619720   8.9052902   6.3388356  58.2947658  22.6524218
   5.7087017  58.9763939  22.8859615   6.2324444  58.1830740  21.7077356
   1.6333328  57.9619454  13.5790142   0.8432382  58.2176982  13.1030253
   2.1244576  58.7767792  13.6842183  15.6497138  65.3024693  16.3295423
  16.4714582  64.9004880  16.0478105  15.6459541  65.1992927  17.2811539
   9.4153741  64.8508736  18.4856134   9.4798174  65.3129144  19.3214305
   8.7064665  64.2206101  18.6138443  23.7403131  61.6463442  12.6780395
  22.9866839  61.0770840  12.5224399  23.8750672  61.6126106  13.6251029
   5.6169099  52.5968424  25.0149469   5.2236044  52.0434622  25.6897113
   6.4335239  52.9079002  25.4055987   8.5337060  54.0126303  22.6069726
   9.2746773  54.6133456  22.5274188   8.7654982  53.2703941  22.0487768
   3.6778398  59.1982670  20.8847955   3.5631913  58.2967927  21.1855054
   2.8222915  59.4446367  20.5332772  10.7570235  67.1400410  22.4835456
  10.3134090  66.3536789  22.1656361  11.4187449  67.3279561  21.8179347
   5.5157357  68.6696212  17.0096135   6.0664782  68.5413275  16.2373128
   4.6768832  68.9691101  16.6591027  12.8551473  67.4203210  20.5116857
  12.8369949  68.2412091  20.0197126  13.7771394  67.2957286  20.7366998
   9.3124528  64.9347340  21.3540366   9.8452864  64.1735628  21.1239674
   8.7838609  64.6420992  22.0964520  12.4794223  50.0407406  16.8834007
  12.1358492  50.9309047  16.8073118  12.8473185  49.8509063  16.0203592
  12.4444505  60.0316017   5.3906443  11.9291129  60.8020622   5.6294830
  12.1721814  59.3581153   6.0139504  10.0291616  54.8765718  10.4491681
   9.1733213  54.4872568  10.2697320  10.4418568  54.9557678   9.5891466
  11.5590763  52.4112061  14.8483241  11.0555559  52.3742196  14.0351046
  11.8521370  53.3204804  14.9079897   7.8033649  52.4950791  13.8549422
   8.6686646  52.2993599  13.4955312   7.8711158  52.2661142  14.7818779
  17.4178779  62.7848372   7.3259616  16.6408222  62.4459531   6.8814778
  18.0970260  62.7900995   6.6514581  12.2330808  57.9043109   7.2166224
  11.9280944  58.2189258   8.0676367  13.1861251  57.9824529   7.2593557
  15.6570086  62.2582353  13.9826224  14.9993761  62.9481614  14.0706353
  16.4610486  62.6478785  14.3260210   5.4095968  54.7252999  11.2265789
   5.9839720  54.5028180  10.4938982   5.9966950  54.7941693  11.9794390
  14.4675545  60.6126725  12.0330166  14.9807427  61.2456717  12.5351875
  15.1176769  60.0127921  11.6673526   7.7118636  51.5994248   9.9540859
   7.0583048  51.2843265   9.3297473   7.6699110  50.9769988  10.6800682
  10.9456376  58.0876181  14.2788506  10.0278937  58.3091128  14.1210194
  11.3616520  58.1622492  13.4200214  11.7291424  59.4867597   9.4091187
  12.4763243  59.9988994   9.0998309  11.9983013  59.1651649  10.2695580
  15.2337341  65.5932727  10.1609308  14.7799668  64.7523637  10.2174499
  14.6031308  66.2294125  10.4984089  14.1770261  56.5224713  11.3909976
  13.4393018  56.0102099  11.7220218  14.4297034  56.0825095  10.5793253
  13.6770281  67.4309224  11.0959126  13.9693255  67.9914281  10.3771492
  14.1868901  67.7237785  11.8512286  14.2781888  49.3000965  11.9851745
  14.5840765  48.4398328  11.6977660  15.0034493  49.8918585  11.7850739
   8.5502968  59.5954758  12.4927936   8.6051578  58.6428594  12.4170413
   7.7394170  59.7514197  12.9769235   6.4895328  58.2131818  10.2518315
   5.6763193  58.5125988  10.6583507   6.9854322  57.8187507  10.9692797
  12.0869540  58.6773642  19.0833209  12.4418927  58.9045115  19.9427675
  12.7341671  59.0092019  18.4610464  17.8167277  61.7992078   9.7882538
  17.6785175  61.9893674   8.8603727  17.4603495  62.5611461  10.2450589
   5.9809403  55.7850173  15.8679550   6.6208782  55.6438932  15.1702513
   5.1486933  55.4984687  15.4918152  17.8436656  63.8668605  14.7993809
  18.2773163  63.7743894  15.6476863  18.5568237  63.8426106  14.1613825
  11.5764551  67.4670699  16.3326910  11.6301573  68.0361636  17.1004626
  10.7079332  67.6372584  15.9680947   2.9838019  55.7550498  10.6452537
   3.2444836  56.6695832  10.5361697   3.8055191  55.2874941  10.7949150
   4.4562944  57.1688255  17.8151361   5.1285998  56.9605618  17.1664010
   3.6292731  56.9710341  17.3756594  18.7052206  63.9092306  17.3326695
  18.8988096  64.8138116  17.5785970  18.6052824  63.4499725  18.1665280
  10.3588516  53.7950196  19.8317022   9.7116431  54.4940146  19.7381499
  11.1289532  54.2286340  20.1993270  13.7667314  64.0599049  22.9067575
  13.6152821  63.8309600  21.9897659  13.7571994  65.0169650  22.9198920
  10.5352651  61.6330961  17.8913842  11.4644711  61.7842121  17.7182809
  10.1143681  61.7214982  17.0362488   9.3340983  65.6581626  15.6612380
   9.1952068  65.2900410  16.5338318   8.5455579  66.1729265  15.4896337
  10.8846198  65.0363228  13.0501217  10.5496030  64.9963998  13.9458867
  10.3850143  64.3707944  12.5771628   4.8590442  60.4430858  18.5753798
   4.7210240  59.7111097  19.1765338   5.7695365  60.3539759  18.2937986
   7.4872742  60.1550818  18.0637478   8.1972361  59.5144010  18.0224097
   7.4442050  60.4063713  18.9863659  15.4759521  67.0918171  20.9844057
  15.4172067  66.4077391  20.3174640  15.8779039  67.8337161  20.5324683
   6.2001676  57.1416036  19.8833118   5.6639033  56.6906774  20.5354714
   5.6118385  57.2761944  19.1403582  15.4776928  65.0557755  19.2158037
  14.5903707  64.7183677  19.3384436  16.0475479  64.3240786  19.4526802
   1.9340798  56.2772043  16.9686112   1.8498986  55.6697713  16.2336522
   1.1123504  56.7681062  16.9695608   9.0078082  69.7159207  16.1819280
   8.9348253  70.5214179  16.6938585   8.5655475  69.9151173  15.3567302
  12.1064511  54.7625607  12.3356307  12.6033211  54.0095569  12.0157377
  11.3351493  54.7989924  11.7699516  19.9594269  60.4665972  13.9774599
  19.9484145  61.3490688  13.6068532  19.0911648  60.1137523  13.7829136
  11.4676765  69.6146041  18.3377439  12.1804737  70.2493506  18.2653340
  10.9766794  69.7109907  17.5217441  13.1894292  63.5197294   9.9094731
  12.2550571  63.6398757   9.7399435  13.3670961  62.6169761   9.6454740
   8.6899480  56.9042990  12.0627992   8.3197268  56.3514030  12.7508897
   9.1858573  56.3001123  11.5102992  16.5766843  59.3614613  10.4444765
  17.0427296  60.1942605  10.3705067  17.0274344  58.8959595  11.1490023
   6.5188679  67.3640485  19.1583010   7.2198138  67.9976968  19.3112404
   6.0483794  67.7055216  18.3978649  14.6443075  65.7058435   7.4430917
  14.9202918  65.5915029   8.3524791  13.7747573  65.3075920   7.4043090
  14.5483506  51.7295200  14.4835666  13.6346586  51.9599427  14.6517873
  14.9776608  51.8133644  15.3349698  14.3189965  59.9185092  16.9835560
  13.6661415  60.1661000  16.3288013  14.6970345  59.1049231  16.6498037
  11.2797139  69.9544786  11.0863730  11.4619533  69.1366441  11.5491483
  12.1030125  70.1712478  10.6488620  10.3677538  60.6604903  23.4701597
   9.6918175  60.5599033  24.1403972  11.1905172  60.5044117  23.9337594
   9.1100321  71.9671831  17.7059213   9.6618629  72.1303452  18.4708298
   9.4506514  72.5576269  17.0339238   4.0864814  54.3146981  18.3081098
   4.1506140  55.1761812  17.8958496   4.0231934  53.7020982  17.5753456
   3.5617086  56.3870113  21.9554132   4.1889125  56.0047191  22.5691656
   2.7045005  56.1684315  22.3209825  13.9611195  66.7933088  23.5607868
  14.5051099  67.4063047  23.0662822  13.3798040  67.3512667  24.0774881
  12.2468708  69.9153806  14.6922895  12.1219847  69.1143546  14.1833841
  12.9047799  70.4100000  14.2036865   3.8676876  56.2702539  13.8700036
   3.1463462  56.8838507  13.7307509   4.6570132  56.8060304  13.7916681
  14.3103616  67.7162826  16.3202445  13.3633952  67.5968178  16.2480772
  14.6586389  66.8285325  16.4028707   6.6703190  53.6056965  20.1440687
   7.1937591  53.8519262  20.9066997   6.4515523  54.4377000  19.7243825
  11.3150050  67.5115543  12.5206798  11.1675012  66.5832250  12.7014368
  12.1403543  67.5335633  12.0363873  14.9184171  68.3344101  13.6071670
  15.8430719  68.1286963  13.4696121  14.7499475  68.0860503  14.5161012
   7.8755735  54.5470661  17.8290358   7.5352555  53.7478474  18.2311038
   7.1694741  54.8472371  17.2567191   8.5272206  51.6319973  16.2817681
   9.3498276  51.1580451  16.1596571   8.7710270  52.4110457  16.7816367
  11.3111564  55.3653380   7.5138915  11.5275178  56.2478018   7.2127743
  10.8305631  54.9739594   6.7844557   6.0510785  58.3239094  14.0909659
   5.9055366  58.6379397  14.9833941   5.5735989  58.9423994  13.5380558
   7.9107168  55.3141642  14.1390549   7.8968737  54.4182735  13.8022847
   8.6279596  55.3212305  14.7728835   9.7633299  55.7478982  16.1843676
   9.5051077  56.6696052  16.1828007   9.2318339  55.3509416  16.8744141
  14.7079488  68.8529769   8.9633762  14.8816365  68.2876191   8.2107614
  15.2008379  69.6530664   8.7813252   7.3144064  54.1956022   9.4078119
   7.4359975  53.2672668   9.6069007   7.0246106  54.2094708   8.4956435
  10.1835254  51.8810932  12.5444839  10.2056951  51.9450265  11.5896819
  10.6003313  51.0415441  12.7385345  20.5618879  61.6166192  10.5824062
  21.0050025  60.8673517  10.1843185  19.6845389  61.6076328  10.1997794
   1.3122469  59.9914334  19.9227477   0.5704205  60.1396970  20.5092108
   0.9915214  60.2522600  19.0594227  17.5946083  65.6196239   7.5917991
  18.1197407  65.9583512   6.8667311  17.5068436  64.6843254   7.4081125
   9.2566132  69.5330312  19.7207867   9.5653258  69.2879459  20.5930567
  10.0541614  69.7376951  19.2326738   6.7260616  67.2306231  14.0235546
   6.1040625  66.5676936  13.7237774   7.3965483  67.2567363  13.3409193
   6.7985144  55.7088019  23.6168052   6.8473299  56.5850142  23.2345821
   7.3407658  55.1665412  23.0439695  17.2839989  66.2529142  22.8969189
  16.4935533  66.2353281  22.3573688  17.0473344  66.7917436  23.6518225
  17.4037864  63.1021609  20.2101917  17.4535869  62.9371616  21.1517440
  17.2951788  62.2348868  19.8199798  14.6941627  59.0852537  21.5261224
  15.5951489  58.9459002  21.2345222  14.7689601  59.2506992  22.4659401
   9.0284432  56.4619392  20.3714410   8.1587741  56.7552958  20.0996999
   9.2643912  57.0459837  21.0921674  18.9056061  65.5218550  20.4543939
  18.6140869  65.8848531  21.2907400  18.2928192  64.8085559  20.2757271
  20.1051743  63.0871430  12.9746509  20.9398635  63.5261234  13.1384069
  20.2410872  62.6110083  12.1554755  17.1543249  60.6451165  18.9223997
  17.6297371  60.8378811  18.1142848  16.2308815  60.7010351  18.6767381
  11.7323466  52.6799009  17.8879831  12.2505410  53.4160035  17.5626319
  11.3778599  52.9863002  18.7226590  11.9836060  49.0999291  13.4080727
  12.2637814  48.4322480  14.0341154  12.7686667  49.2928387  12.8955391
  15.8544918  57.5216925  17.1552302  16.8062341  57.6215023  17.1764527
  15.6848369  56.7295194  17.6650387  13.8759298  54.6072508  17.3411703
  13.2809230  54.8877521  16.6458192  13.5908995  55.0966409  18.1128444
  18.3332996  60.7423045  16.2694602  18.3009316  59.8039045  16.4554286
  18.9433620  60.8207081  15.5360427  18.4827485  57.5334088  16.3152885
  17.9666533  56.7492545  16.1282814  19.3667433  57.2052805  16.4799405
  16.1438212  51.2775104  12.2748698  15.9463033  50.9690192  13.1592030
  16.7537917  52.0036743  12.4046628  24.1509546  61.8039052  15.4100639
  24.8812935  61.5424340  15.9708342  23.5416492  61.0667774  15.4502707
  22.2324843  59.9446914  16.0075090  21.5058007  59.8102879  15.3991582
  21.8172130  60.2523743  16.8131808  10.0555020  63.6636844  23.7722463
  10.9758029  63.8415443  23.9662510  10.0204603  62.7192889  23.6202162
   3.0517092  61.5737879  16.4145244   3.2703102  62.5054986  16.4333278
   3.4642866  61.2145853  17.2000048   9.9721310  52.0805964   8.4020933
   9.1622038  51.7353049   8.7776179  10.6605727  51.7713508   8.9908544
  11.9011858  51.1584011  10.0245229  12.4542897  51.5779464  10.6835252
  12.1381945  50.2319759  10.0668185   7.9244957  57.1471084  25.8047993
   7.8241684  58.0965441  25.7360084   7.7066500  56.8189323  24.9324063
  15.2790665  53.2684536   9.5323894  14.6989334  53.9269340   9.1501946
  15.0126598  52.4461880   9.1211311  13.7294232  52.6689593  11.7345214
  14.2294010  52.7806128  10.9259533  14.3729840  52.3650646  12.3746022
   7.7876228  60.5768223  24.6213055   7.3043309  61.3768583  24.8276944
   7.8737167  60.5876168  23.6680499   3.7149565  64.4672758  16.6581489
   4.6692819  64.4356700  16.5911420   3.5162089  64.0063382  17.4731715
   4.3048947  63.0373874  19.2252286   5.1241836  63.5317953  19.2487124
   4.5785755  62.1205842  19.1969854  14.0615543  55.4284626   8.5880242
  13.1741398  55.7134277   8.3700437  14.4769532  55.2678390   7.7407519
  17.4130079  55.4531147  12.3034581  18.1890470  55.9427600  12.5759198
  16.6878214  55.8789201  12.7606451  19.8502638  56.1658766  13.3608522
  20.4447129  55.9254502  12.6501830  19.9229222  55.4465897  13.9882058
  14.0356567  60.9439162   8.8030532  13.9791768  61.4007714   7.9638164
  14.5884910  60.1829847   8.6253375  17.8461373  56.7328894   9.6280651
  17.5898307  56.3325530  10.4588859  17.2214241  57.4472688   9.5030791
  22.1573711  59.4724967  12.1351943  21.5973269  59.5418157  12.9083505
  21.5517214  59.2965952  11.4151439  14.7691346  62.1343943   6.0983061
  14.7140150  61.9688215   5.1571505  14.1437402  62.8419976   6.2545251
  12.0837254  64.4392855  25.4236624  12.9528413  64.6133507  25.0623259
  11.6044005  65.2587272  25.3012353   6.2523434  71.5589956  17.1026058
   7.1550680  71.5913566  17.4192553   6.0260804  70.6290407  17.1172393
  11.8939591  48.2294829   9.9314316  11.1271987  47.6753316  10.0770999
  12.3050296  48.3016698  10.7928468   3.8981352  54.5179625  24.0219498
   4.7612814  54.1616430  24.2322822   3.3246763  54.1793520  24.7094902
  23.7429729  76.1481481  14.8281899  24.3808139  76.0288229  14.1245239
  23.6250572  77.0962325  14.8869851  20.5519436  76.1008909  14.7643423
  20.2137947  75.9849974  13.8763958  21.4209204  75.7000074  14.7444429
  21.0339219  77.2543761  20.7229629  21.0227859  76.8596559  19.8510133
  21.1959858  76.5209834  21.3163400  17.7546480  80.0380873  19.6708813
  17.4636346  80.9426504  19.5555479  18.3903464  80.0797400  20.3852882
  18.6802687  77.4157721  16.2610172  19.2766259  77.1913744  15.5467135
  18.7377658  76.6742467  16.8635620  23.2970998  73.8732935  11.9035107
  24.0834087  73.4552358  11.5525524  23.5609702  74.7779027  12.0716755
  28.6979425  73.8108168  12.8068085  29.4304597  73.2407385  13.0405915
  27.9418781  73.4229769  13.2474591  20.3155545  76.2335410  10.0031428
  19.9513752  75.7066031  10.7144349  21.1722661  75.8433879   9.8297913
  26.2204845  67.5229742  17.2662694  25.8888170  68.3925153  17.0423909
  25.6250459  67.2066026  17.9456724  22.7136365  79.7242288  16.6658607
  22.4137088  80.6267327  16.5574414  22.3687424  79.4574472  17.5179759
  16.1648846  76.1756085  12.6995311  15.2399343  76.0432299  12.9073003
  16.4133259  76.9550304  13.1965253  26.1133509  72.2424828  14.3456044
  25.2050386  72.1740237  14.0514805  26.0621104  72.7196773  15.1737869
  20.1874374  73.6614474  22.2890941  19.4107708  74.2208394  22.2793806
  20.8264937  74.1471257  22.8105811  27.9795155  70.4441267  16.1233918
  27.3369535  70.7373800  15.4773712  27.4750084  70.3294187  16.9287114
  25.6335319  74.1904440   6.8119777  26.5453175  74.4231827   6.6367475
  25.1244966  74.7741484   6.2494856  18.4420747  76.4699927  21.8508908
  19.1835431  77.0084971  21.5743732  17.7357732  77.0966216  22.0080460
  23.9176086  78.6129068  20.4481070  24.3259442  78.1711478  19.7035702
  23.1953348  78.0381695  20.7015262  20.2707156  73.5501675  17.8214627
  21.1168352  73.9741088  17.9649276  20.2105794  72.8935299  18.5153190
  24.2404901  79.1730259  14.2033358  23.6113763  79.3375973  13.5009426
  23.8530563  79.5871868  14.9744323  28.1194133  80.1084696  11.5577722
  27.4345171  80.4883598  11.0074756  28.2037982  80.7180023  12.2909670
  23.4206602  71.2106043  19.4795800  23.1767534  71.9648104  18.9430076
  23.6966532  71.5891391  20.3143047  25.3745064  77.7544655  18.1573066
  25.5861960  78.3976415  17.4807447  25.3274813  76.9206972  17.6894996
  22.9771293  70.3662476  15.0609638  22.1155772  70.6643730  15.3526375
  23.0033728  70.5832875  14.1290671  19.7932863  78.9104667  11.4683444
  20.2571208  79.1892370  10.6788066  19.5289661  78.0088111  11.2856534
  16.6856944  78.4576148  14.4063207  17.2558301  78.8863417  13.7680691
  17.2765056  78.1758733  15.1047392  18.7301749  75.0327819   8.2773009
  19.4325792  75.4848863   8.7446935  18.3982377  74.3911638   8.9052902
  17.1782110  73.6239576  22.6524218  16.5480771  74.3055856  22.8859615
  17.0718198  73.5122657  21.7077356  12.4727083  73.2911372  13.5790142
  11.6826137  73.5468900  13.1030253  12.9638330  74.1059709  13.6842183
  26.4890892  80.6316611  16.3295423  27.3108336  80.2296798  16.0478105
  26.4853295  80.5284845  17.2811539  20.2547496  80.1800654  18.4856134
  20.3191928  80.6421061  19.3214305  19.5458420  79.5498019  18.6138443
  10.7564786  73.5441862  16.0105133  11.0072824  74.4288872  16.2762709
  11.2924334  73.3646464  15.2380225  34.5796885  76.9755359  12.6780395
  33.8260594  76.4062757  12.5224399  34.7144427  76.9418024  13.6251029
  16.4562853  67.9260341  25.0149469  16.0629799  67.3726540  25.6897113
  17.2728993  68.2370920  25.4055987  19.3730814  69.3418221  22.6069726
  20.1140528  69.9425374  22.5274188  19.6048737  68.5995858  22.0487768
  14.5172152  74.5274588  20.8847955  14.4025667  73.6259845  21.1855054
  13.6616670  74.7738285  20.5332772  21.5963990  82.4692328  22.4835456
  21.1527844  81.6828707  22.1656361  22.2581203  82.6571479  21.8179347
  16.3551111  83.9988130  17.0096135  16.9058536  83.8705193  16.2373128
  15.5162587  84.2983019  16.6591027  23.6945228  82.7495128  20.5116857
  23.6763703  83.5704009  20.0197126  24.6165148  82.6249203  20.7366998
  20.1518282  80.2639258  21.3540366  20.6846619  79.5027546  21.1239674
  19.6232363  79.9712909  22.0964520  23.3187977  65.3699323  16.8834007
  22.9752246  66.2600965  16.8073118  23.6866940  65.1800981  16.0203592
  23.2838260  75.3607935   5.3906443  22.7684883  76.1312539   5.6294830
  23.0115568  74.6873071   6.0139504  20.8685371  70.2057635  10.4491681
  20.0126967  69.8164486  10.2697320  21.2812323  70.2849596   9.5891466
  22.3984517  67.7403979  14.8483241  21.8949313  67.7034114  14.0351046
  22.6915124  68.6496721  14.9079897  18.6427403  67.8242708  13.8549422
  19.5080400  67.6285517  13.4955312  18.7104912  67.5953060  14.7818779
  28.2572534  78.1140289   7.3259616  27.4801977  77.7751449   6.8814778
  28.9364015  78.1192912   6.6514581  23.0724563  73.2335027   7.2166224
  22.7674699  73.5481176   8.0676367  24.0255005  73.3116447   7.2593557
  26.4963841  77.5874270  13.9826224  25.8387515  78.2773532  14.0706353
  27.3004240  77.9770702  14.3260210  16.2489722  70.0544916  11.2265789
  16.8233474  69.8320098  10.4938982  16.8360705  70.1233611  11.9794390
  25.3069300  75.9418643  12.0330166  25.8201181  76.5748635  12.5351875
  25.9570524  75.3419839  11.6673526  18.5512390  66.9286165   9.9540859
  17.8976802  66.6135182   9.3297473  18.5092864  66.3061906  10.6800682
  21.7850130  73.4168099  14.2788506  20.8672692  73.6383046  14.1210194
  22.2010274  73.4914409  13.4200214  22.5685178  74.8159514   9.4091187
  23.3156997  75.3280912   9.0998309  22.8376768  74.4943567  10.2695580
  26.0731096  80.9224645  10.1609308  25.6193423  80.0815555  10.2174499
  25.4425063  81.5586043  10.4984089  25.0164015  71.8516631  11.3909976
  24.2786772  71.3394017  11.7220218  25.2690789  71.4117012  10.5793253
  24.5164035  82.7601141  11.0959126  24.8087009  83.3206198  10.3771492
  25.0262656  83.0529702  11.8512286  25.1175643  64.6292883  11.9851745
  25.4234520  63.7690246  11.6977660  25.8428248  65.2210503  11.7850739
  19.3896722  74.9246676  12.4927936  19.4445332  73.9720512  12.4170413
  18.5787924  75.0806115  12.9769235  17.3289082  73.5423735  10.2518315
  16.5156948  73.8417906  10.6583507  17.8248077  73.1479424  10.9692797
  22.9263294  74.0065560  19.0833209  23.2812682  74.2337033  19.9427675
  23.5735425  74.3383937  18.4610464  28.6561031  77.1283996   9.7882538
  28.5178930  77.3185592   8.8603727  28.2997250  77.8903379  10.2450589
  16.8203157  71.1142091  15.8679550  17.4602536  70.9730850  15.1702513
  15.9880688  70.8276604  15.4918152  28.6830411  79.1960523  14.7993809
  29.1166917  79.1035812  15.6476863  29.3961991  79.1718023  14.1613825
  22.4158306  82.7962617  16.3326910  22.4695328  83.3653553  17.1004626
  21.5473087  82.9664502  15.9680947  13.8231774  71.0842416  10.6452537
  14.0838591  71.9987749  10.5361697  14.6448946  70.6166859  10.7949150
  15.2956699  72.4980173  17.8151361  15.9679752  72.2897535  17.1664010
  14.4686485  72.3002259  17.3756594  29.5445960  79.2384223  17.3326695
  29.7381850  80.1430034  17.5785970  29.4446578  78.7791643  18.1665280
  24.6061069  79.3890966  22.9067575  24.4546575  79.1601518  21.9897659
  24.5965748  80.3461568  22.9198920  21.3746405  76.9622879  17.8913842
  22.3038465  77.1134039  17.7182809  20.9537435  77.0506900  17.0362488
  20.1734737  80.9873543  15.6612380  20.0345823  80.6192328  16.5338318
  19.3849333  81.5021183  15.4896337  21.7239952  80.3655146  13.0501217
  21.3889785  80.3255916  13.9458867  21.2243898  79.6999862  12.5771628
  15.6984196  75.7722776  18.5753798  15.5603994  75.0403015  19.1765338
  16.6089120  75.6831676  18.2937986  18.3266497  75.4842735  18.0637478
  19.0366115  74.8435928  18.0224097  18.2835805  75.7355630  18.9863659
  26.3153276  82.4210089  20.9844057  26.2565822  81.7369309  20.3174640
  26.7172794  83.1629079  20.5324683  17.0395431  72.4707953  19.8833118
  16.5032788  72.0198692  20.5354714  16.4512139  72.6053862  19.1403582
  26.3170683  80.3849673  19.2158037  25.4297462  80.0475595  19.3384436
  26.8869234  79.6532704  19.4526802  12.7734552  71.6063961  16.9686112
  12.6892741  70.9989631  16.2336522  11.9517258  72.0972979  16.9695608
  19.8471836  85.0451125  16.1819280  19.7742008  85.8506097  16.6938585
  19.4049229  85.2443091  15.3567302  22.9458266  70.0917525  12.3356307
  23.4426965  69.3387487  12.0157377  22.1745247  70.1281841  11.7699516
  30.7988023  75.7957890  13.9774599  30.7877900  76.6782606  13.6068532
  29.9305403  75.4429441  13.7829136  22.3070520  84.9437959  18.3377439
  23.0198492  85.5785424  18.2653340  21.8160548  85.0401825  17.5217441
  24.0288047  78.8489212   9.9094731  23.0944325  78.9690674   9.7399435
  24.2064715  77.9461679   9.6454740  19.5293235  72.2334908  12.0627992
  19.1591022  71.6805948  12.7508897  20.0252327  71.6293041  11.5102992
  27.4160598  74.6906531  10.4444765  27.8821050  75.5234523  10.3705067
  27.8668098  74.2251513  11.1490023  17.3582433  82.6932403  19.1583010
  18.0591893  83.3268886  19.3112404  16.8877548  83.0347134  18.3978649
  25.4836829  81.0350352   7.4430917  25.7596673  80.9206947   8.3524791
  24.6141328  80.6367837   7.4043090  25.3877261  67.0587118  14.4835666
  24.4740340  67.2891345  14.6517873  25.8170362  67.1425562  15.3349698
  25.1583719  75.2477010  16.9835560  24.5055169  75.4952917  16.3288013
  25.5364099  74.4341148  16.6498037  22.1190893  85.2836703  11.0863730
  22.3013288  84.4658359  11.5491483  22.9423879  85.5004395  10.6488620
  21.2071292  75.9896821  23.4701597  20.5311929  75.8890950  24.1403972
  22.0298926  75.8336035  23.9337594  19.9494075  87.2963749  17.7059213
  20.5012383  87.4595370  18.4708298  20.2900269  87.8868186  17.0339238
  14.9258568  69.6438898  18.3081098  14.9899895  70.5053729  17.8958496
  14.8625689  69.0312900  17.5753456  14.4010841  71.7162031  21.9554132
  15.0282880  71.3339108  22.5691656  13.5438760  71.4976233  22.3209825
  24.8004949  82.1225006  23.5607868  25.3444853  82.7354964  23.0662822
  24.2191794  82.6804584  24.0774881  23.0862462  85.2445724  14.6922895
  22.9613602  84.4435464  14.1833841  23.7441553  85.7391917  14.2036865
  14.7070631  71.5994457  13.8700036  13.9857216  72.2130424  13.7307509
  15.4963886  72.1352221  13.7916681  25.1497371  83.0454744  16.3202445
  24.2027706  82.9260095  16.2480772  25.4980144  82.1577242  16.4028707
  17.5096944  68.9348883  20.1440687  18.0331346  69.1811180  20.9066997
  17.2909277  69.7668918  19.7243825  22.1543804  82.8407460  12.5206798
  22.0068766  81.9124168  12.7014368  22.9797298  82.8627551  12.0363873
  25.7577926  83.6636019  13.6071670  26.6824473  83.4578880  13.4696121
  25.5893229  83.4152420  14.5161012  18.7149489  69.8762578  17.8290358
  18.3746310  69.0770391  18.2311038  18.0088495  70.1764289  17.2567191
  19.3665961  66.9611891  16.2817681  20.1892030  66.4872369  16.1596571
  19.6104025  67.7402374  16.7816367  18.0074195  69.9900149   6.5780582
  18.7282558  70.3681402   6.0744299  17.3839500  70.7089026   6.6815560
  22.1505318  70.6945298   7.5138915  22.3668933  71.5769936   7.2127743
  21.6699386  70.3031511   6.7844557  16.8904540  73.6531011  14.0909659
  16.7449120  73.9671314  14.9833941  16.4129743  74.2715912  13.5380558
  18.7500923  70.6433559  14.1390549  18.7362491  69.7474653  13.8022847
  19.4673351  70.6504223  14.7728835  20.6027053  71.0770899  16.1843676
  20.3444831  71.9987970  16.1828007  20.0712094  70.6801334  16.8744141
  25.5473242  84.1821687   8.9633762  25.7210120  83.6168109   8.2107614
  26.0402133  84.9822581   8.7813252  11.3650202  76.1936356  17.0297321
  10.8203670  76.9696164  17.1617595  12.2429552  76.5407160  16.8716442
  18.1537819  69.5247940   9.4078119  18.2753730  68.5964586   9.6069007
  17.8639861  69.5386625   8.4956435  21.0229009  67.2102850  12.5444839
  21.0450706  67.2742183  11.5896819  21.4397068  66.3707359  12.7385345
  31.4012633  76.9458109  10.5824062  31.8443779  76.1965435  10.1843185
  30.5239144  76.9368246  10.1997794  12.1516224  75.3206252  19.9227477
  11.4097960  75.4688887  20.5092108  11.8308968  75.5814518  19.0594227
  28.4339838  80.9488156   7.5917991  28.9591162  81.2875429   6.8667311
  28.3462190  80.0135172   7.4081125  20.0959886  84.8622230  19.7207867
  20.4047013  84.6171377  20.5930567  20.8935368  85.0668869  19.2326738
  17.5654371  82.5598149  14.0235546  16.9434380  81.8968854  13.7237774
  18.2359238  82.5859281  13.3409193  17.6378898  71.0379937  23.6168052
  17.6867054  71.9142060  23.2345821  18.1801412  70.4957330  23.0439695
  28.1233744  81.5821060  22.8969189  27.3329287  81.5645199  22.3573688
  27.8867098  82.1209354  23.6518225  28.2431619  78.4313526  20.2101917
  28.2929624  78.2663534  21.1517440  28.1345542  77.5640786  19.8199798
  25.5335381  74.4144455  21.5261224  26.4345244  74.2750919  21.2345222
  25.6083356  74.5798909  22.4659401  19.8678187  71.7911309  20.3714410
  18.9981496  72.0844875  20.0996999  20.1037667  72.3751754  21.0921674
  29.7449816  80.8510468  20.4543939  29.4534624  81.2140449  21.2907400
  29.1321947  80.1377476  20.2757271  30.9445498  78.4163348  12.9746509
  31.7792389  78.8553152  13.1384069  31.0804627  77.9402001  12.1554755
  27.9937004  75.9743083  18.9223997  28.4691125  76.1670729  18.1142848
  27.0702569  76.0302268  18.6767381  22.5717220  68.0090926  17.8879831
  23.0899164  68.7451953  17.5626319  22.2172353  68.3154919  18.7226590
  22.8229815  64.4291209  13.4080727  23.1031568  63.7614398  14.0341154
  23.6080421  64.6220304  12.8955391  26.6938673  72.8508843  17.1552302
  27.6456096  72.9506940  17.1764527  26.5242123  72.0587111  17.6650387
  24.7153052  69.9364426  17.3411703  24.1202984  70.2169439  16.6458192
  24.4302749  70.4258327  18.1128444  29.1726751  76.0714962  16.2694602
  29.1403071  75.1330963  16.4554286  29.7827374  76.1498999  15.5360427
  29.3221239  72.8626006  16.3152885  28.8060288  72.0784462  16.1282814
  30.2061188  72.5344722  16.4799405  26.9831966  66.6067021  12.2748698
  26.7856787  66.2982110  13.1592030  27.5931672  67.3328660  12.4046628
  34.9903301  77.1330969  15.4100639  35.7206689  76.8716257  15.9708342
  34.3810246  76.3959691  15.4502707  33.0718598  75.2738832  16.0075090
  32.3451761  75.1394797  15.3991582  32.6565885  75.5815660  16.8131808
  20.8948774  78.9928762  23.7722463  21.8151784  79.1707361  23.9662510
  20.8598357  78.0484807  23.6202162  13.8910847  76.9029796  16.4145244
  14.1096856  77.8346904  16.4333278  14.3036620  76.5437771  17.2000048
  20.8115064  67.4097881   8.4020933  20.0015793  67.0644966   8.7776179
  21.4999481  67.1005425   8.9908544  22.7405613  66.4875928  10.0245229
  23.2936651  66.9071382  10.6835252  22.9775699  65.5611676  10.0668185
  18.7638712  72.4763002  25.8047993  18.6635439  73.4257359  25.7360084
  18.5460254  72.1481241  24.9324063  26.1184420  68.5976453   9.5323894
  25.5383089  69.2561257   9.1501946  25.8520352  67.7753798   9.1211311
  24.5687986  67.9981511  11.7345214  25.0687765  68.1098046  10.9259533
  25.2123594  67.6942564  12.3746022  18.6269982  75.9060141  24.6213055
  18.1437064  76.7060501  24.8276944  18.7130921  75.9168086  23.6680499
  14.5543319  79.7964675  16.6581489  15.5086573  79.7648618  16.5911420
  14.3555843  79.3355299  17.4731715  15.1442702  78.3665792  19.2252286
  15.9635591  78.8609870  19.2487124  15.4179509  77.4497760  19.1969854
  24.9009298  70.7576544   8.5880242  24.0135153  71.0426194   8.3700437
  25.3163287  70.5970307   7.7407519  28.2523834  70.7823065  12.3034581
  29.0284224  71.2719517  12.5759198  27.5271968  71.2081119  12.7606451
  30.6896393  71.4950684  13.3608522  31.2840883  71.2546420  12.6501830
  30.7622976  70.7757815  13.9882058  24.8750322  76.2731080   8.8030532
  24.8185523  76.7299631   7.9638164  25.4278664  75.5121764   8.6253375
  28.6855127  72.0620812   9.6280651  28.4292062  71.6617447  10.4588859
  28.0607996  72.7764606   9.5030791  32.9967465  74.8016885  12.1351943
  32.4367023  74.8710074  12.9083505  32.3910969  74.6257870  11.4151439
  25.6085101  77.4635861   6.0983061  25.5533905  77.2980132   5.1571505
  24.9831156  78.1711894   6.2545251  10.3977616  72.7003925  19.9244483
  11.0436479  72.1902879  20.4131709  10.1894767  73.4372607  20.4987909
  22.9231008  79.7684773  25.4236624  23.7922168  79.9425425  25.0623259
  22.4437760  80.5879190  25.3012353  18.9181226  66.9643970   5.6768380
  18.9059896  67.9085810   5.8336650  19.8104648  66.7814115   5.3827841
  17.0917188  86.8881874  17.1026058  17.9944435  86.9205484  17.4192553
  16.8654558  85.9582325  17.1172393  22.7333346  63.5586747   9.9314316
  21.9665742  63.0045233  10.0770999  23.1444051  63.6308615  10.7928468
  14.7375107  69.8471542  24.0219498  15.6006568  69.4908347  24.2322822
  14.1640518  69.5085437  24.7094902  34.5823484  91.4773399  14.8281899
  35.2201894  91.3580146  14.1245239  34.4644327  92.4254243  14.8869851
  31.3913190  91.4300827  14.7643423  31.0531702  91.3141892  13.8763958
  32.2602958  91.0291992  14.7444429  31.8732973  92.5835679  20.7229629
  31.8621614  92.1888477  19.8510133  32.0353613  91.8501751  21.3163400
  28.5940234  95.3672790  19.6708813  28.3030100  96.2718421  19.5555479
  29.2297219  95.4089318  20.3852882  29.5196441  92.7449639  16.2610172
  30.1160013  92.5205661  15.5467135  29.5771413  92.0034384  16.8635620
  34.1364752  89.2024853  11.9035107  34.9227842  88.7844276  11.5525524
  34.4003457  90.1070945  12.0716755  39.5373179  89.1400086  12.8068085
  40.2698351  88.5699303  13.0405915  38.7812535  88.7521686  13.2474591
  31.1549299  91.5627327  10.0031428  30.7907506  91.0357948  10.7144349
  32.0116415  91.1725796   9.8297913  37.0598600  82.8521660  17.2662694
  36.7281925  83.7217071  17.0423909  36.4644213  82.5357944  17.9456724
  33.5530119  95.0534206  16.6658607  33.2530842  95.9559245  16.5574414
  33.2081179  94.7866389  17.5179759  27.0042601  91.5048003  12.6995311
  26.0793097  91.3724217  12.9073003  27.2527014  92.2842222  13.1965253
  36.9527263  87.5716746  14.3456044  36.0444140  87.5032155  14.0514805
  36.9014859  88.0488691  15.1737869  31.0268129  88.9906392  22.2890941
  30.2501463  89.5500312  22.2793806  31.6658692  89.4763175  22.8105811
  38.8188909  85.7733185  16.1233918  38.1763290  86.0665718  15.4773712
  38.3143838  85.6586105  16.9287114  36.4729073  89.5196358   6.8119777
  37.3846929  89.7523744   6.6367475  35.9638720  90.1033402   6.2494856
  29.2814501  91.7991845  21.8508908  30.0229186  92.3376889  21.5743732
  28.5751487  92.4258134  22.0080460  34.7569841  93.9420986  20.4481070
  35.1653197  93.5003396  19.7035702  34.0347102  93.3673613  20.7015262
  31.1100911  88.8793592  17.8214627  31.9562106  89.3033006  17.9649276
  31.0499549  88.2227217  18.5153190  35.0798655  94.5022176  14.2033358
  34.4507518  94.6667890  13.5009426  34.6924318  94.9163786  14.9744323
  38.9587887  95.4376614  11.5577722  38.2738925  95.8175515  11.0074756
  39.0431737  96.0471941  12.2909670  34.2600356  86.5397961  19.4795800
  34.0161288  87.2940021  18.9430076  34.5360287  86.9183308  20.3143047
  36.2138819  93.0836573  18.1573066  36.4255714  93.7268333  17.4807447
  36.1668567  92.2498890  17.6894996  33.8165048  85.6954394  15.0609638
  32.9549527  85.9935647  15.3526375  33.8427483  85.9124793  14.1290671
  30.6326617  94.2396584  11.4683444  31.0964963  94.5184287  10.6788066
  30.3683415  93.3380029  11.2856534  27.5250698  93.7868066  14.4063207
  28.0952055  94.2155334  13.7680691  28.1158810  93.5050651  15.1047392
  29.5695503  90.3619737   8.2773009  30.2719547  90.8140780   8.7446935
  29.2376132  89.7203556   8.9052902  28.0175865  88.9531493  22.6524218
  27.3874525  89.6347774  22.8859615  27.9111953  88.8414575  21.7077356
  23.3120837  88.6203289  13.5790142  22.5219891  88.8760818  13.1030253
  23.8032085  89.4351627  13.6842183  37.3284647  95.9608528  16.3295423
  38.1502091  95.5588716  16.0478105  37.3247050  95.8576763  17.2811539
  31.0941250  95.5092572  18.4856134  31.1585683  95.9712979  19.3214305
  30.3852174  94.8789937  18.6138443  21.5958540  88.8733780  16.0105133
  21.8466579  89.7580790  16.2762709  22.1318089  88.6938381  15.2380225
  45.4190640  92.3047277  12.6780395  44.6654348  91.7354675  12.5224399
  45.5538181  92.2709941  13.6251029  27.2956608  83.2552259  25.0149469
  26.9023553  82.7018458  25.6897113  28.1122748  83.5662838  25.4055987
  30.2124569  84.6710138  22.6069726  30.9534282  85.2717291  22.5274188
  30.4442491  83.9287776  22.0487768  25.3565907  89.8566505  20.8847955
  25.2419422  88.9551763  21.1855054  24.5010424  90.1030202  20.5332772
  32.4357744  97.7984246  22.4835456  31.9921599  97.0120624  22.1656361
  33.0974958  97.9863396  21.8179347  27.1944866  99.3280047  17.0096135
  27.7452291  99.1997111  16.2373128  26.3556341  99.6274936  16.6591027
  34.5338982  98.0787046  20.5116857  34.5157458  98.8995927  20.0197126
  35.4558902  97.9541121  20.7366998  30.9912037  95.5931175  21.3540366
  31.5240373  94.8319463  21.1239674  30.4626118  95.3004827  22.0964520
  34.1581732  80.6991241  16.8834007  33.8146001  81.5892883  16.8073118
  34.5260694  80.5092899  16.0203592  34.1232014  90.6899852   5.3906443
  33.6078638  91.4604457   5.6294830  33.8509323  90.0164988   6.0139504
  31.7079125  85.5349553  10.4491681  30.8520722  85.1456403  10.2697320
  32.1206077  85.6141514   9.5891466  33.2378272  83.0695896  14.8483241
  32.7343068  83.0326031  14.0351046  33.5308879  83.9788639  14.9079897
  29.4821158  83.1534626  13.8549422  30.3474155  82.9577435  13.4955312
  29.5498667  82.9244978  14.7818779  39.0966288  93.4432207   7.3259616
  38.3195731  93.1043366   6.8814778  39.7757769  93.4484830   6.6514581
  33.9118317  88.5626944   7.2166224  33.6068453  88.8773094   8.0676367
  34.8648760  88.6408364   7.2593557  37.3357595  92.9166188  13.9826224
  36.6781270  93.6065450  14.0706353  38.1397995  93.3062620  14.3260210
  27.0883477  85.3836834  11.2265789  27.6627229  85.1612015  10.4938982
  27.6754459  85.4525528  11.9794390  36.1463054  91.2710561  12.0330166
  36.6594936  91.9040553  12.5351875  36.7964278  90.6711756  11.6673526
  29.3906145  82.2578083   9.9540859  28.7370557  81.9427100   9.3297473
  29.3486619  81.6353823  10.6800682  32.6243885  88.7460016  14.2788506
  31.7066446  88.9674963  14.1210194  33.0404029  88.8206327  13.4200214
  33.4078933  90.1451432   9.4091187  34.1550752  90.6572829   9.0998309
  33.6770522  89.8235485  10.2695580  36.9124850  96.2516562  10.1609308
  36.4587177  95.4107472  10.2174499  36.2818817  96.8877961  10.4984089
  35.8557770  87.1808548  11.3909976  35.1180527  86.6685935  11.7220218
  36.1084543  86.7408930  10.5793253  35.3557790  98.0893059  11.0959126
  35.6480764  98.6498116  10.3771492  35.8656410  98.3821620  11.8512286
  35.9569397  79.9584800  11.9851745  36.2628274  79.0982164  11.6977660
  36.6822002  80.5502421  11.7850739  30.2290477  90.2538593  12.4927936
  30.2839087  89.3012430  12.4170413  29.4181679  90.4098033  12.9769235
  28.1682837  88.8715653  10.2518315  27.3550702  89.1709824  10.6583507
  28.6641831  88.4771342  10.9692797  33.7657049  89.3357478  19.0833209
  34.1206436  89.5628951  19.9427675  34.4129180  89.6675854  18.4610464
  39.4954786  92.4575914   9.7882538  39.3572684  92.6477509   8.8603727
  39.1391004  93.2195296  10.2450589  27.6596912  86.4434009  15.8679550
  28.2996291  86.3022768  15.1702513  26.8274442  86.1568522  15.4918152
  39.5224165  94.5252441  14.7993809  39.9560672  94.4327730  15.6476863
  40.2355746  94.5009941  14.1613825  33.2552060  98.1254535  16.3326910
  33.3089082  98.6945471  17.1004626  32.3866841  98.2956420  15.9680947
  24.6625528  86.4134334  10.6452537  24.9232345  87.3279667  10.5361697
  25.4842700  85.9458776  10.7949150  26.1350453  87.8272091  17.8151361
  26.8073507  87.6189453  17.1664010  25.3080240  87.6294177  17.3756594
  40.3839715  94.5676141  17.3326695  40.5775605  95.4721952  17.5785970
  40.2840333  94.1083560  18.1665280  32.0376025  84.4534032  19.8317022
  31.3903940  85.1523981  19.7381499  32.8077041  84.8870176  20.1993270
  35.4454823  94.7182884  22.9067575  35.2940330  94.4893436  21.9897659
  35.4359503  95.6753485  22.9198920  32.2140160  92.2914797  17.8913842
  33.1432220  92.4425956  17.7182809  31.7931190  92.3798817  17.0362488
  31.0128492  96.3165461  15.6612380  30.8739577  95.9484245  16.5338318
  30.2243088  96.8313101  15.4896337  32.5633707  95.6947064  13.0501217
  32.2283539  95.6547834  13.9458867  32.0637652  95.0291780  12.5771628
  26.5377951  91.1014694  18.5753798  26.3997749  90.3694933  19.1765338
  27.4482874  91.0123594  18.2937986  29.1660251  90.8134653  18.0637478
  29.8759870  90.1727845  18.0224097  29.1229559  91.0647548  18.9863659
  37.1547030  97.7502006  20.9844057  37.0959576  97.0661227  20.3174640
  37.5566548  98.4920996  20.5324683  27.8789185  87.7999871  19.8833118
  27.3426542  87.3490609  20.5354714  27.2905894  87.9345780  19.1403582
  37.1564437  95.7141590  19.2158037  36.2691216  95.3767512  19.3384436
  37.7262988  94.9824622  19.4526802  23.6128307  86.9355879  16.9686112
  23.5286495  86.3281548  16.2336522  22.7911013  87.4264897  16.9695608
  30.6865591 100.3743043  16.1819280  30.6135762 101.1798014  16.6938585
  30.2442984 100.5735009  15.3567302  33.7852020  85.4209442  12.3356307
  34.2820720  84.6679405  12.0157377  33.0139002  85.4573759  11.7699516
  41.6381778  91.1249808  13.9774599  41.6271654  92.0074523  13.6068532
  40.7699157  90.7721359  13.7829136  33.1464274 100.2729877  18.3377439
  33.8592246 100.9077342  18.2653340  32.6554303 100.3693743  17.5217441
  34.8681801  94.1781129   9.9094731  33.9338080  94.2982592   9.7399435
  35.0458470  93.2753596   9.6454740  30.3686989  87.5626825  12.0627992
  29.9984777  87.0097866  12.7508897  30.8646082  86.9584959  11.5102992
  38.2554352  90.0198449  10.4444765  38.7214805  90.8526440  10.3705067
  38.7061853  89.5543430  11.1490023  28.1976188  98.0224320  19.1583010
  28.8985647  98.6560803  19.3112404  27.7271303  98.3639052  18.3978649
  36.3230584  96.3642270   7.4430917  36.5990427  96.2498865   8.3524791
  35.4535082  95.9659755   7.4043090  36.2271015  82.3879036  14.4835666
  35.3134095  82.6183263  14.6517873  36.6564117  82.4717480  15.3349698
  35.9977474  90.5768928  16.9835560  35.3448924  90.8244835  16.3288013
  36.3757854  89.7633066  16.6498037  32.9584648 100.6128621  11.0863730
  33.1407042  99.7950277  11.5491483  33.7817634 100.8296313  10.6488620
  32.0465047  91.3188739  23.4701597  31.3705684  91.2182868  24.1403972
  32.8692681  91.1627953  23.9337594  25.7652323  84.9730816  18.3081098
  25.8293649  85.8345647  17.8958496  25.7019443  84.3604818  17.5753456
  25.2404595  87.0453949  21.9554132  25.8676634  86.6631026  22.5691656
  24.3832514  86.8268150  22.3209825  35.6398704  97.4516924  23.5607868
  36.1838608  98.0646882  23.0662822  35.0585549  98.0096502  24.0774881
  33.9256217 100.5737642  14.6922895  33.8007356  99.7727382  14.1833841
  34.5835308 101.0683835  14.2036865  25.5464385  86.9286374  13.8700036
  24.8250971  87.5422342  13.7307509  26.3357641  87.4644139  13.7916681
  35.9891125  98.3746662  16.3202445  35.0421461  98.2552013  16.2480772
  36.3373898  97.4869160  16.4028707  28.3490699  84.2640801  20.1440687
  28.8725100  84.5103097  20.9066997  28.1303032  85.0960836  19.7243825
  32.9937559  98.1699378  12.5206798  32.8462521  97.2416085  12.7014368
  33.8191052  98.1919469  12.0363873  36.5971680  98.9927937  13.6071670
  37.5218228  98.7870798  13.4696121  36.4286984  98.7444338  14.5161012
  29.5543244  85.2054496  17.8290358  29.2140064  84.4062309  18.2311038
  28.8482250  85.5056207  17.2567191  30.2059715  82.2903808  16.2817681
  31.0285785  81.8164286  16.1596571  30.4497779  83.0694292  16.7816367
  28.8467950  85.3192067   6.5780582  29.5676312  85.6973320   6.0744299
  28.2233254  86.0380944   6.6815560  32.9899073  86.0237216   7.5138915
  33.2062687  86.9061854   7.2127743  32.5093140  85.6323429   6.7844557
  27.7298294  88.9822929  14.0909659  27.5842875  89.2963232  14.9833941
  27.2523498  89.6007829  13.5380558  29.5894677  85.9725477  14.1390549
  29.5756246  85.0766570  13.8022847  30.3067105  85.9796141  14.7728835
  31.4420808  86.4062817  16.1843676  31.1838586  87.3279888  16.1828007
  30.9105848  86.0093252  16.8744141  22.2043956  91.5228273  17.0297321
  21.6597424  92.2988081  17.1617595  23.0823306  91.8699078  16.8716442
  28.9931573  84.8539857   9.4078119  29.1147484  83.9256503   9.6069007
  28.7033615  84.8678543   8.4956435  31.8622763  82.5394768  12.5444839
  31.8844460  82.6034101  11.5896819  32.2790822  81.6999276  12.7385345
  42.2406388  92.2750027  10.5824062  42.6837534  91.5257352  10.1843185
  41.3632898  92.2660164  10.1997794  22.9909978  90.6498170  19.9227477
  22.2491714  90.7980805  20.5092108  22.6702723  90.9106435  19.0594227
  30.9353641 100.1914148  19.7207867  31.2440767  99.9463295  20.5930567
  31.7329123 100.3960786  19.2326738  28.4048125  97.8890067  14.0235546
  27.7828134  97.2260772  13.7237774  29.0752992  97.9151198  13.3409193
  28.4772653  86.3671855  23.6168052  28.5260808  87.2433977  23.2345821
  29.0195167  85.8249248  23.0439695  38.9627498  96.9112978  22.8969189
  38.1723042  96.8937117  22.3573688  38.7260853  97.4501271  23.6518225
  39.0825373  93.7605444  20.2101917  39.1323378  93.5955452  21.1517440
  38.9739297  92.8932703  19.8199798  36.3729136  89.7436372  21.5261224
  37.2738998  89.6042837  21.2345222  36.4477110  89.9090827  22.4659401
  30.7071941  87.1203227  20.3714410  29.8375250  87.4136793  20.0996999
  30.9431421  87.7043672  21.0921674  40.5843570  96.1802386  20.4543939
  40.2928378  96.5432366  21.2907400  39.9715701  95.4669394  20.2757271
  41.7839252  93.7455265  12.9746509  42.6186144  94.1845070  13.1384069
  41.9198381  93.2693919  12.1554755  38.8330758  91.3035000  18.9223997
  39.3084880  91.4962647  18.1142848  37.9096324  91.3594186  18.6767381
  33.4110975  83.3382844  17.8879831  33.9292919  84.0743871  17.5626319
  33.0566108  83.6446837  18.7226590  33.6623569  79.7583126  13.4080727
  33.9425323  79.0906315  14.0341154  34.4474176  79.9512222  12.8955391
  37.5332427  88.1800760  17.1552302  38.4849850  88.2798858  17.1764527
  37.3635878  87.3879029  17.6650387  35.5546807  85.2656344  17.3411703
  34.9596739  85.5461356  16.6458192  35.2696504  85.7550245  18.1128444
  40.0120505  91.4006880  16.2694602  39.9796825  90.4622881  16.4554286
  40.6221129  91.4790917  15.5360427  40.1614994  88.1917924  16.3152885
  39.6454042  87.4076380  16.1282814  41.0454942  87.8636640  16.4799405
  37.8225721  81.9358939  12.2748698  37.6250542  81.6274027  13.1592030
  38.4325426  82.6620578  12.4046628  45.8297055  92.4622887  15.4100639
  46.5600444  92.2008175  15.9708342  45.2204001  91.7251609  15.4502707
  43.9112352  90.6030750  16.0075090  43.1845516  90.4686714  15.3991582
  43.4959639  90.9107578  16.8131808  31.7342529  94.3220679  23.7722463
  32.6545538  94.4999278  23.9662510  31.6992112  93.3776725  23.6202162
  24.7304601  92.2321714  16.4145244  24.9490611  93.1638822  16.4333278
  25.1430375  91.8729688  17.2000048  31.6508819  82.7389799   8.4020933
  30.8409547  82.3936884   8.7776179  32.3393236  82.4297343   8.9908544
  33.5799367  81.8167846  10.0245229  34.1330406  82.2363299  10.6835252
  33.8169454  80.8903594  10.0668185  29.6032466  87.8054920  25.8047993
  29.5029193  88.7549277  25.7360084  29.3854008  87.4773159  24.9324063
  36.9578174  83.9268371   9.5323894  36.3776843  84.5853175   9.1501946
  36.6914107  83.1045716   9.1211311  35.4081741  83.3273429  11.7345214
  35.9081519  83.4389963  10.9259533  36.0517349  83.0234482  12.3746022
  29.4663736  91.2352058  24.6213055  28.9830818  92.0352419  24.8276944
  29.5524676  91.2460003  23.6680499  25.3937074  95.1256593  16.6581489
  26.3480328  95.0940535  16.5911420  25.1949598  94.6647217  17.4731715
  25.9836456  93.6957709  19.2252286  26.8029345  94.1901788  19.2487124
  26.2573264  92.7789677  19.1969854  35.7403052  86.0868462   8.5880242
  34.8528907  86.3718112   8.3700437  36.1557041  85.9262225   7.7407519
  39.0917588  86.1114982  12.3034581  39.8677979  86.6011435  12.5759198
  38.3665723  86.5373037  12.7606451  41.5290147  86.8242602  13.3608522
  42.1234638  86.5838338  12.6501830  41.6016731  86.1049732  13.9882058
  35.7144076  91.6022997   8.8030532  35.6579277  92.0591549   7.9638164
  36.2672419  90.8413682   8.6253375  39.5248882  87.3912729   9.6280651
  39.2685816  86.9909365  10.4588859  38.9001750  88.1056523   9.5030791
  43.8361220  90.1308803  12.1351943  43.2760778  90.2001992  12.9083505
  43.2304723  89.9549787  11.4151439  36.4478855  92.7927779   6.0983061
  36.3927659  92.6272050   5.1571505  35.8224911  93.5003812   6.2545251
  21.2371370  88.0295843  19.9244483  21.8830234  87.5194797  20.4131709
  21.0288521  88.7664525  20.4987909  33.7624763  95.0976691  25.4236624
  34.6315922  95.2717343  25.0623259  33.2831514  95.9171107  25.3012353
  29.7574981  82.2935888   5.6768380  29.7453651  83.2377728   5.8336650
  30.6498403  82.1106033   5.3827841  33.5727100  78.8878664   9.9314316
  32.8059496  78.3337151  10.0770999  33.9837805  78.9600533  10.7928468
  25.5768861  85.1763460  24.0219498  26.4400323  84.8200265  24.2322822
  25.0034272  84.8377355  24.7094902  47.8992354  98.1813578  17.2662694
  47.5675679  99.0508989  17.0423909  47.3037968  97.8649862  17.9456724
  41.8661883 104.3198309  22.2890941  41.0895217 104.8792230  22.2793806
  42.5052446 104.8055092  22.8105811  49.6582664 101.1025102  16.1233918
  49.0157044 101.3957635  15.4773712  49.1537592 100.9878023  16.9287114
  41.9494665 104.2085510  17.8214627  42.7955861 104.6324924  17.9649276
  41.8893303 103.5519134  18.5153190  45.0994111 101.8689878  19.4795800
  44.8555043 102.6231939  18.9430076  45.3754041 102.2475226  20.3143047
  44.6558802 101.0246311  15.0609638  43.7943281 101.3227565  15.3526375
  44.6821237 101.2416710  14.1290671  38.1350362  98.5844177  25.0149469
  37.7417308  98.0310375  25.6897113  38.9516502  98.8954755  25.4055987
  41.0518323 100.0002056  22.6069726  41.7928036 100.6009209  22.5274188
  41.2836246  99.2579694  22.0487768  44.9975486  96.0283159  16.8834007
  44.6539755  96.9184801  16.8073118  45.3654449  95.8384816  16.0203592
  44.0772026  98.3987814  14.8483241  43.5736822  98.3617949  14.0351046
  44.3702633  99.3080557  14.9079897  40.3214912  98.4826544  13.8549422
  41.1867909  98.2869352  13.4955312  40.3892421  98.2536895  14.7818779
  37.9277231 100.7128752  11.2265789  38.5020983 100.4903933  10.4938982
  38.5148214 100.7817446  11.9794390  40.2299899  97.5870001   9.9540859
  39.5764311  97.2719018   9.3297473  40.1880373  96.9645741  10.6800682
  46.7963152  95.2876718  11.9851745  47.1022029  94.4274081  11.6977660
  47.5215757  95.8794338  11.7850739  44.6050803 104.6649395  19.0833209
  44.9600191 104.8920868  19.9427675  45.2522934 104.9967772  18.4610464
  38.4990666 101.7725926  15.8679550  39.1390045 101.6314685  15.1702513
  37.6668197 101.4860440  15.4918152  35.5019283 101.7426251  10.6452537
  35.7626100 102.6571585  10.5361697  36.3236455 101.2750694  10.7949150
  36.9744208 103.1564009  17.8151361  37.6467261 102.9481371  17.1664010
  36.1473994 102.9586095  17.3756594  42.8769780  99.7825949  19.8317022
  42.2297695 100.4815899  19.7381499  43.6470795 100.2162093  20.1993270
  38.7182940 103.1291789  19.8833118  38.1820297 102.6782527  20.5354714
  38.1299648 103.2637698  19.1403582  47.0664770  97.7170953  14.4835666
  46.1527849  97.9475180  14.6517873  47.4957871  97.8009397  15.3349698
  46.8371228 105.9060845  16.9835560  46.1842678 106.1536753  16.3288013
  47.2151608 105.0924984  16.6498037  36.6046077 100.3022734  18.3081098
  36.6687404 101.1637565  17.8958496  36.5413198  99.6896735  17.5753456
  36.0798350 102.3745866  21.9554132  36.7070389 101.9922944  22.5691656
  35.2226269 102.1560068  22.3209825  36.3858140 102.2578292  13.8700036
  35.6644725 102.8714260  13.7307509  37.1751395 102.7936057  13.7916681
  39.1884453  99.5932718  20.1440687  39.7118855  99.8395015  20.9066997
  38.9696786 100.4252753  19.7243825  40.3936998 100.5346414  17.8290358
  40.0533819  99.7354227  18.2311038  39.6876004 100.8348124  17.2567191
  41.0453470  97.6195726  16.2817681  41.8679539  97.1456204  16.1596571
  41.2891534  98.3986210  16.7816367  40.4288432 101.3017395  14.1390549
  40.4150000 100.4058488  13.8022847  41.1460860 101.3088058  14.7728835
  42.2814562 101.7354735  16.1843676  42.0232340 102.6571805  16.1828007
  41.7499603 101.3385169  16.8744141  42.7016518  97.8686685  12.5444839
  42.7238215  97.9326018  11.5896819  43.1184577  97.0291194  12.7385345
  39.3166407 101.6963772  23.6168052  39.3654563 102.5725895  23.2345821
  39.8588921 101.1541165  23.0439695  47.2122890 105.0728290  21.5261224
  48.1132753 104.9334755  21.2345222  47.2870865 105.2382745  22.4659401
  41.5465696 102.4495145  20.3714410  40.6769005 102.7428711  20.0996999
  41.7825176 103.0335590  21.0921674  44.2504729  98.6674762  17.8879831
  44.7686673  99.4035788  17.5626319  43.8959862  98.9738755  18.7226590
  44.5017324  95.0875044  13.4080727  44.7819077  94.4198233  14.0341154
  45.2867930  95.2804140  12.8955391  48.3726182 103.5092678  17.1552302
  49.3243605 103.6090776  17.1764527  48.2029632 102.7170947  17.6650387
  46.3940561 100.5948261  17.3411703  45.7990493 100.8753274  16.6458192
  46.1090258 101.0842162  18.1128444  40.4426221 103.1346837  25.8047993
  40.3422948 104.0841194  25.7360084  40.2247763 102.8065076  24.9324063
  44.4120855  94.2170582   9.9314316  43.6453251  93.6629069  10.0770999
  44.8231560  94.2892451  10.7928468  36.4162616 100.5055378  24.0219498
  37.2794077 100.1492183  24.2322822  35.8428026 100.1669273  24.7094902
  13.9611196  43.7995211  10.2853174  14.5051100  44.4125169   9.7908129
  13.3798041  44.3574789  10.8020187  23.7429731  53.1543604   1.5527205
  24.3808141  53.0350351   0.8490545  23.6250573  54.1024448   1.6115157
  21.0339220  54.2605884   7.4474935  21.0227861  53.8658682   6.5755439
  21.1959859  53.5271956   8.0408707  17.7546481  57.0442995   6.3954119
  17.4636347  57.9488626   6.2800786  18.3903465  57.0859523   7.1098189
  18.6802688  54.4219844   2.9855479  19.2766260  54.1975866   2.2712442
  18.7377659  53.6804589   3.5880927  22.7136366  56.7304411   3.3903913
  22.4137089  57.6329450   3.2819720  22.3687426  56.4636594   4.2425066
  20.1874376  50.6676597   9.0136248  19.4107710  51.2270517   9.0039112
  20.8264939  51.1533380   9.5351118  18.4420748  53.4762050   8.5754215
  19.1835432  54.0147094   8.2989038  17.7357733  54.1028339   8.7325767
  23.9176088  55.6191190   7.1726376  24.3259444  55.1773601   6.4281009
  23.1953349  55.0443818   7.4260569  20.2707158  50.5563797   4.5459933
  21.1168353  50.9803211   4.6894582  20.2105795  49.8997422   5.2398496
  24.2404902  56.1792381   0.9278665  23.6113765  56.3438095   0.2254733
  23.8530564  56.5933991   1.6989629  28.1194134  57.1146819  -1.7176971
  27.4345172  57.4945720  -2.2679938  28.2037983  57.7242146  -0.9845023
  23.4206603  48.2168166   6.2041107  23.1767535  48.9710226   5.6675383
  23.6966533  48.5953513   7.0388354  25.3745066  54.7606778   4.8818372
  25.5861961  55.4038538   4.2052753  25.3274814  53.9269095   4.4140302
  17.1782112  50.6301698   9.3769525  16.5480772  51.3117979   9.6104922
  17.0718200  50.5184780   8.4322663  26.4890894  57.6378733   3.0540730
  27.3108337  57.2358921   2.7723411  26.4853297  57.5346968   4.0056846
  20.2547497  57.1862777   5.2101440  20.3191930  57.6483184   6.0459612
  19.5458421  56.5560142   5.3383750  34.5796887  53.9817482  -0.5974299
  33.8260595  53.4124880  -0.7530294  34.7144428  53.9480146   0.3496336
  16.4562854  44.9322464  11.7394776  16.0629800  44.3788663  12.4142420
  17.2728995  45.2433043  12.1301293  19.3730815  46.3480343   9.3315032
  20.1140529  46.9487496   9.2519495  19.6048738  45.6057981   8.7733075
  14.5172153  51.5336710   7.6093262  14.4025669  50.6321968   7.9100361
  13.6616671  51.7800407   7.2578079  21.5963991  59.4754451   9.2080763
  21.1527845  58.6890829   8.8901667  22.2581205  59.6633601   8.5424653
  16.3551112  61.0050252   3.7341441  16.9058537  60.8767316   2.9618435
  15.5162588  61.3045141   3.3836334  23.6945229  59.7557251   7.2362164
  23.6763705  60.5766132   6.7442433  24.6165149  59.6311326   7.4612305
  20.1518283  57.2701380   8.0785672  20.6846620  56.5089668   7.8484980
  19.6232364  56.9775032   8.8209827  26.4963842  54.5936393   0.7071531
  25.8387517  55.2835654   0.7951659  27.3004241  54.9832825   1.0505517
  24.5164036  59.7663264  -2.1795567  24.8087011  60.3268321  -2.8983201
  25.0262657  60.0591825  -1.4242408  22.9263295  51.0127683   5.8078516
  23.2812683  51.2399156   6.6672981  23.5735427  51.3446059   5.1855771
  28.6830412  56.2022645   1.5239116  29.1166919  56.1097935   2.3722170
  29.3961993  56.1780146   0.8859132  22.4158307  59.8024740   3.0572217
  22.4695329  60.3715676   3.8249933  21.5473088  59.9726625   2.6926254
  29.5445961  56.2446346   4.0572001  29.7381852  57.1492157   4.3031276
  29.4446580  55.7853765   4.8910587  21.1982272  46.1304237   6.5562329
  20.5510187  46.8294186   6.4626805  21.9683288  46.5640381   6.9238577
  24.6061070  56.3953089   9.6312882  24.4546577  56.1663641   8.7142966
  24.5965750  57.3523690   9.6444227  21.3746407  53.9685002   4.6159149
  22.3038467  54.1196161   4.4428116  20.9537437  54.0569022   3.7607795
  20.1734738  57.9935666   2.3857686  20.0345824  57.6254450   3.2583624
  19.3849335  58.5083305   2.2141644  15.6984197  52.7784899   5.2999105
  15.5603995  52.0465138   5.9010644  16.6089121  52.6893799   5.0183293
  18.3266498  52.4904858   4.7882785  19.0366117  51.8498050   4.7469403
  18.2835806  52.7417753   5.7108966  26.3153277  59.4272211   7.7089364
  26.2565823  58.7431432   7.0419947  26.7172795  60.1691201   7.2569990
  17.0395432  49.4770076   6.6078424  16.5032789  49.0260814   7.2600021
  16.4512141  49.6115985   5.8648889  26.3170684  57.3911795   5.9403344
  25.4297463  57.0537717   6.0629742  26.8869235  56.6594827   6.1772109
  19.8471837  62.0513248   2.9064587  19.7742009  62.8568219   3.4183891
  19.4049231  62.2505214   2.0812608  30.7988025  52.8020013   0.7019905
  30.7877901  53.6844728   0.3313838  29.9305404  52.4491564   0.5074442
  22.3070521  61.9500082   5.0622745  23.0198493  62.5847547   4.9898647
  21.8160550  62.0463948   4.2462747  17.3582434  59.6994525   5.8828316
  18.0591894  60.3331008   6.0357711  16.8877549  60.0409257   5.1223956
  25.1583720  52.2539133   3.7080867  24.5055171  52.5015040   3.0533319
  25.5364100  51.4403271   3.3743344  22.1190894  62.2898826  -2.1890963
  22.3013289  61.4720482  -1.7263211  22.9423880  62.5066518  -2.6266073
  21.2071293  52.9958944  10.1946904  20.5311930  52.8953073  10.8649279
  22.0298927  52.8398157  10.6582901  19.9494076  64.3025871   4.4304520
  20.5012384  64.4657493   5.1953605  20.2900270  64.8930309   3.7584545
  14.4010842  48.7224153   8.6799439  15.0282881  48.3401231   9.2936963
  13.5438761  48.5038355   9.0455131  24.8004951  59.1287129  10.2853174
  25.3444855  59.7417087   9.7908129  24.2191796  59.6866707  10.8020187
  23.0862464  62.2507847   1.4168202  22.9613603  61.4497587   0.9079147
  23.7441555  62.7454040   0.9282172  25.1497372  60.0516867   3.0447752
  24.2027708  59.9322218   2.9726079  25.4980145  59.1639365   3.1274013
  22.1543805  59.8469583  -0.7547896  22.0068768  58.9186290  -0.5740326
  22.9797299  59.8689674  -1.2390821  25.7577927  60.6698142   0.3316977
  26.6824475  60.4641003   0.1941428  25.5893231  60.4214543   1.2406318
  20.0959888  61.8684353   6.4453174  20.4047014  61.6233499   7.3175874
  20.8935370  62.0730991   5.9572044  17.5654372  59.5660271   0.7480852
  16.9434381  58.9030976   0.4483080  18.2359239  59.5921403   0.0654500
  17.6378899  48.0442059  10.3413358  17.6867055  48.9204182   9.9591128
  18.1801414  47.5019453   9.7685002  28.1233745  58.5883183   9.6214495
  27.3329289  58.5707322   9.0818995  27.8867100  59.1271476  10.3763532
  28.2431620  55.4375649   6.9347224  28.2929625  55.2725657   7.8762747
  28.1345543  54.5702908   6.5445105  25.5335382  51.4206577   8.2506531
  26.4345245  51.2813042   7.9590528  25.6083357  51.5861032   9.1904708
  19.8678188  48.7973432   7.0959717  18.9981497  49.0906998   6.8242306
  20.1037668  49.3813877   7.8166981  29.7449817  57.8572591   7.1789246
  29.4534625  58.2202571   8.0152706  29.1321948  57.1439599   7.0002578
  30.9445499  55.4225470  -0.3008184  31.7792391  55.8615274  -0.1370624
  31.0804628  54.9464124  -1.1199938  27.9937005  52.9805205   5.6469303
  28.4691127  53.1732852   4.8388155  27.0702571  53.0364391   5.4012687
  26.6938674  49.8570965   3.8797609  27.6456097  49.9569063   3.9009833
  26.5242125  49.0649234   4.3895693  29.1726752  53.0777085   2.9939909
  29.1403072  52.1393086   3.1799593  29.7827376  53.1561122   2.2605734
  29.3221240  49.8688128   3.0398192  28.8060289  49.0846585   2.8528121
  30.2061189  49.5406845   3.2044711  34.9903302  54.1393092   2.1345946
  35.7206690  53.8778380   2.6953649  34.3810247  53.4021814   2.1748014
  33.0718599  52.2800954   2.7320397  32.3451762  52.1456919   2.1236888
  32.6565886  52.5877783   3.5377115  20.8948775  55.9990884  10.4967770
  21.8151785  56.1769483  10.6907816  20.8598358  55.0546929  10.3447469
  18.7638713  49.4825125  12.5293300  18.6635440  50.4319481  12.4605391
  18.5460255  49.1543363  11.6569370  18.6269983  52.9122263  11.3458362
  18.1437065  53.7122623  11.5522251  18.7130922  52.9230208  10.3925805
  14.5543321  56.8026798   3.3826795  15.5086574  56.7710740   3.3156727
  14.3555844  56.3417422   4.1977021  15.1442703  55.3727914   5.9497593
  15.9635592  55.8671993   5.9732430  15.4179511  54.4559882   5.9215160
  32.9967467  51.8079007  -1.1402750  32.4367025  51.8772197  -0.3671188
  32.3910970  51.6319992  -1.8603254  22.9231009  56.7746895  12.1481931
  23.7922169  56.9487548  11.7868566  22.4437761  57.5941312  12.0257660
  17.0917190  63.8943996   3.8271364  17.9944436  63.9267607   4.1437859
  16.8654560  62.9644447   3.8417700  14.7375108  46.8533665  10.7464804
  15.6006570  46.4970470  10.9568129  14.1640519  46.5147560  11.4340209
  34.5823485  68.4835521   1.5527205  35.2201895  68.3642269   0.8490545
  34.4644328  69.4316365   1.6115157  31.3913191  68.4362950   1.4888730
  31.0531703  68.3204014   0.6009265  32.2602960  68.0354115   1.4689736
  31.8732974  69.5897801   7.4474935  31.8621615  69.1950600   6.5755439
  32.0353614  68.8563874   8.0408707  28.5940235  72.3734913   6.3954119
  28.3030101  73.2780544   6.2800786  29.2297220  72.4151441   7.1098189
  29.5196442  69.7511762   2.9855479  30.1160015  69.5267784   2.2712442
  29.5771414  69.0096507   3.5880927  34.1364754  66.2086975  -1.3719587
  34.9227843  65.7906398  -1.7229170  34.4003458  67.1133067  -1.2037938
  39.5373181  66.1462208  -0.4686608  40.2698353  65.5761425  -0.2348779
  38.7812536  65.7583809  -0.0280103  31.1549300  68.5689450  -3.2723266
  30.7907508  68.0420071  -2.5610344  32.0116416  68.1787919  -3.4456780
  37.0598601  59.8583783   3.9908000  36.7281926  60.7279194   3.7669215
  36.4644214  59.5420067   4.6702031  33.5530121  72.0596329   3.3903913
  33.2530844  72.9621367   3.2819720  33.2081180  71.7928512   4.2425066
  27.0042602  68.5110125  -0.5759382  26.0793098  68.3786340  -0.3681691
  27.2527015  69.2904345  -0.0789440  36.9527264  64.5778869   1.0701350
  36.0444142  64.5094277   0.7760111  36.9014860  65.0550814   1.8983176
  31.0268130  65.9968514   9.0136248  30.2501464  66.5562434   9.0039112
  31.6658693  66.4825297   9.5351118  38.8188911  62.7795307   2.8479224
  38.1763291  63.0727840   2.2019019  38.3143839  62.6648227   3.6532421
  36.4729074  66.5258480  -6.4634916  37.3846931  66.7585867  -6.6387219
  35.9638721  67.1095525  -7.0259838  29.2814502  68.8053968   8.5754215
  30.0229187  69.3439012   8.2989038  28.5751488  69.4320256   8.7325767
  34.7569842  70.9483108   7.1726376  35.1653198  70.5065519   6.4281009
  34.0347104  70.3735736   7.4260569  31.1100912  65.8855715   4.5459933
  31.9562107  66.3095128   4.6894582  31.0499550  65.2289339   5.2398496
  35.0798657  71.5084299   0.9278665  34.4507519  71.6730013   0.2254733
  34.6924319  71.9225908   1.6989629  38.9587889  72.4438737  -1.7176971
  38.2738927  72.8237638  -2.2679938  39.0431738  73.0534063  -0.9845023
  34.2600357  63.5460083   6.2041107  34.0161289  64.3002144   5.6675383
  34.5360288  63.9245431   7.0388354  36.2138820  70.0898696   4.8818372
  36.4255715  70.7330456   4.2052753  36.1668568  69.2561012   4.4140302
  33.8165049  62.7016516   1.7854945  32.9549528  62.9997770   2.0771682
  33.8427484  62.9186915   0.8535977  30.6326619  71.2458707  -1.8071250
  31.0964964  71.5246410  -2.5966627  30.3683417  70.3442151  -1.9898159
  27.5250700  70.7930188   1.1308513  28.0952057  71.2217457   0.4925998
  28.1158811  70.5112773   1.8292699  29.5695505  67.3681859  -4.9981685
  30.2719548  67.8202903  -4.5307758  29.2376133  66.7265678  -4.3701792
  28.0175866  65.9593616   9.3769525  27.3874527  66.6409897   9.6104922
  27.9111954  65.8476697   8.4322663  23.3120839  65.6265412   0.3035449
  22.5219893  65.8822940  -0.1724440  23.8032086  66.4413750   0.4087489
  37.3284648  72.9670651   3.0540730  38.1502092  72.5650838   2.7723411
  37.3247051  72.8638885   4.0056846  31.0941252  72.5154694   5.2101440
  31.1585684  72.9775102   6.0459612  30.3852175  71.8852059   5.3383750
  21.5958542  65.8795902   2.7350440  21.8466580  66.7642912   3.0008016
  22.1318090  65.7000504   1.9625532  45.4190641  69.3109400  -0.5974299
  44.6654350  68.7416798  -0.7530294  45.5538182  69.2772064   0.3496336
  27.2956609  60.2614382  11.7394776  26.9023554  59.7080580  12.4142420
  28.1122749  60.5724960  12.1301293  30.2124570  61.6772261   9.3315032
  30.9534283  62.2779414   9.2519495  30.4442493  60.9349899   8.7733075
  25.3565908  66.8628628   7.6093262  25.2419423  65.9613885   7.9100361
  24.5010426  67.1092325   7.2578079  32.4357746  74.8046368   9.2080763
  31.9921600  74.0182747   8.8901667  33.0974959  74.9925519   8.5424653
  27.1944867  76.3342170   3.7341441  27.7452292  76.2059233   2.9618435
  26.3556343  76.6337059   3.3836334  34.5338984  75.0849168   7.2362164
  34.5157459  75.9058049   6.7442433  35.4558904  74.9603244   7.4612305
  30.9912038  72.5993298   8.0785672  31.5240375  71.8381586   7.8484980
  30.4626119  72.3066950   8.8209827  34.1581733  57.7053364   3.6079314
  33.8146002  58.5955005   3.5318425  34.5260695  57.5155021   2.7448899
  34.1232016  67.6961975  -7.8848251  33.6078639  68.4666579  -7.6459863
  33.8509324  67.0227111  -7.2615189  31.7079127  62.5411676  -2.8263012
  30.8520723  62.1518526  -3.0057374  32.1206078  62.6203636  -3.6863227
  33.2378273  60.0758019   1.5728547  32.7343069  60.0388154   0.7596353
  33.5308880  60.9850762   1.6325204  29.4821159  60.1596749   0.5794729
  30.3474156  59.9639557   0.2200618  29.5498668  59.9307100   1.5064086
  39.0966290  70.4494330  -5.9495077  38.3195732  70.1105489  -6.3939915
  39.7757771  70.4546953  -6.6240112  33.9118319  65.5689067  -6.0588470
  33.6068454  65.8835216  -5.2078326  34.8648761  65.6470487  -6.0161137
  37.3357597  69.9228311   0.7071531  36.6781271  70.6127572   0.7951659
  38.1397996  70.3124743   1.0505517  27.0883478  62.3898957  -2.0488904
  27.6627230  62.1674138  -2.7815711  27.6754461  62.4587651  -1.2960303
  36.1463055  68.2772683  -1.2424528  36.6594937  68.9102675  -0.7402818
  36.7964279  67.6773879  -1.6081168  29.3906146  59.2640205  -3.3213835
  28.7370558  58.9489223  -3.9457220  29.3486620  58.6415946  -2.5954012
  32.6243886  65.7522139   1.0033813  31.7066448  65.9737086   0.8455501
  33.0404030  65.8268449   0.1445520  33.4078934  67.1513555  -3.8663507
  34.1550753  67.6634952  -4.1756385  33.6770524  66.8297607  -3.0059113
  36.9124852  73.2578685  -3.1145385  36.4587179  72.4169595  -3.0580195
  36.2818818  73.8940083  -2.7770605  35.8557771  64.1870671  -1.8844718
  35.1180528  63.6748057  -1.5534475  36.1084545  63.7471053  -2.6961441
  35.3557791  75.0955182  -2.1795567  35.6480765  75.6560239  -2.8983201
  35.8656411  75.3883743  -1.4242408  35.9569398  56.9646923  -1.2902948
  36.2628275  56.1044286  -1.5777033  36.6822003  57.5564543  -1.4903954
  30.2290478  67.2600716  -0.7826757  30.2839088  66.3074552  -0.8584281
  29.4181680  67.4160155  -0.2985459  28.1682838  65.8777776  -3.0236378
  27.3550704  66.1771946  -2.6171186  28.6641832  65.4833465  -2.3061896
  33.7657050  66.3419600   5.8078516  34.1206438  66.5691073   6.6672981
  34.4129181  66.6737977   5.1855771  39.4954787  69.4638036  -3.4872155
  39.3572685  69.6539632  -4.4150966  39.1391006  70.2257419  -3.0304104
  27.6596913  63.4496131   2.5924857  28.2996292  63.3084890   1.8947820
  26.8274443  63.1630645   2.2163459  39.5224166  71.5314563   1.5239116
  39.9560673  71.4389852   2.3722170  40.2355747  71.5072064   0.8859132
  33.2552061  75.1316657   3.0572217  33.3089084  75.7007594   3.8249933
  32.3866843  75.3018542   2.6926254  24.6625529  63.4196456  -2.6302157
  24.9232347  64.3341790  -2.7392996  25.4842702  62.9520899  -2.4805544
  26.1350455  64.8334213   4.5396668  26.8073508  64.6251576   3.8909317
  25.3080241  64.6356299   4.1001900  40.3839716  71.5738264   4.0572001
  40.5775606  72.4784074   4.3031276  40.2840334  71.1145683   4.8910587
  32.0376027  61.4596154   6.5562329  31.3903942  62.1586104   6.4626805
  32.8077042  61.8932298   6.9238577  35.4454825  71.7245007   9.6312882
  35.2940331  71.4955558   8.7142966  35.4359504  72.6815608   9.6444227
  32.2140161  69.2976919   4.6159149  33.1432221  69.4488079   4.4428116
  31.7931191  69.3860940   3.7607795  31.0128493  73.3227584   2.3857686
  30.8739578  72.9546368   3.2583624  30.2243089  73.8375223   2.2141644
  32.5633708  72.7009186  -0.2253476  32.2283541  72.6609956   0.6704174
  32.0637654  72.0353902  -0.6983066  26.5377952  68.1076816   5.2999105
  26.3997750  67.3757055   5.9010644  27.4482875  68.0185717   5.0183293
  29.1660253  67.8196776   4.7882785  29.8759871  67.1789968   4.7469403
  29.1229561  68.0709671   5.7108966  37.1547031  74.7564129   7.7089364
  37.0959577  74.0723349   7.0419947  37.5566550  75.4983119   7.2569990
  27.8789187  64.8061994   6.6078424  27.3426544  64.3552732   7.2600021
  27.2905895  64.9407902   5.8648889  37.1564439  72.7203713   5.9403344
  36.2691217  72.3829635   6.0629742  37.7262990  71.9886744   6.1772109
  23.6128308  63.9418001   3.6931419  23.5286497  63.3343671   2.9581829
  22.7911014  64.4327020   3.6940915  30.6865592  77.3805165   2.9064587
  30.6135763  78.1860137   3.4183891  30.2442985  77.5797131   2.0812608
  33.7852022  62.4271565  -0.9398386  34.2820721  61.6741527  -1.2597316
  33.0139003  62.4635882  -1.5055177  41.6381779  68.1311930   0.7019905
  41.6271655  69.0136646   0.3313838  40.7699158  67.7783481   0.5074442
  33.1464275  77.2791999   5.0622745  33.8592248  77.9139464   4.9898647
  32.6554304  77.3755865   4.2462747  34.8681802  71.1843252  -3.3659963
  33.9338081  71.3044715  -3.5355259  35.0458471  70.2815719  -3.6299953
  30.3686990  64.5688948  -1.2126702  29.9984778  64.0159988  -0.5245796
  30.8646083  63.9647081  -1.7651702  38.2554354  67.0260571  -2.8309929
  38.7214806  67.8588563  -2.9049626  38.7061854  66.5605553  -2.1264670
  28.1976189  75.0286443   5.8828316  28.8985648  75.6622926   6.0357711
  27.7271304  75.3701174   5.1223956  36.3230585  73.3704393  -5.8323777
  36.5990429  73.2560987  -4.9229903  35.4535084  72.9721877  -5.8711604
  36.2271016  59.3941158   1.2080973  35.3134096  59.6245385   1.3763180
  36.6564118  59.4779602   2.0595005  35.9977475  67.5831050   3.7080867
  35.3448925  67.8306958   3.0533319  36.3757855  66.7695188   3.3743344
  32.9584649  77.6190743  -2.1890963  33.1407043  76.8012399  -1.7263211
  33.7817635  77.8358436  -2.6266073  32.0465048  68.3250861  10.1946904
  31.3705685  68.2244991  10.8649279  32.8692682  68.1690075  10.6582901
  30.7887831  79.6317789   4.4304520  31.3406139  79.7949410   5.1953605
  31.1294024  80.2222227   3.7584545  25.7652324  61.9792939   5.0326404
  25.8293651  62.8407770   4.6203802  25.7019444  61.3666940   4.2998763
  25.2404597  64.0516071   8.6799439  25.8676635  63.6693148   9.2936963
  24.3832515  63.8330273   9.0455131  35.6398705  74.4579046  10.2853174
  36.1838609  75.0709005   9.7908129  35.0585550  75.0158625  10.8020187
  33.9256218  77.5799764   1.4168202  33.8007358  76.7789504   0.9079147
  34.5835309  78.0745958   0.9282172  25.5464386  63.9348497   0.5945342
  24.8250972  64.5484465   0.4552815  26.3357642  64.4706262   0.5161988
  35.9891127  75.3808784   3.0447752  35.0421462  75.2614136   2.9726079
  36.3373900  74.4931282   3.1274013  28.3490700  61.2702923   6.8685994
  28.8725102  61.5165220   7.6312303  28.1303033  62.1022958   6.4489131
  32.9937560  75.1761501  -0.7547896  32.8462522  74.2478208  -0.5740326
  33.8191053  75.1981591  -1.2390821  36.5971682  75.9990059   0.3316977
  37.5218229  75.7932921   0.1941428  36.4286985  75.7506461   1.2406318
  29.5543245  62.2116618   4.5535664  29.2140065  61.4124432   4.9556344
  28.8482251  62.5118329   3.9812498  30.2059717  59.2965931   3.0062987
  31.0285786  58.8226409   2.8841878  30.4497780  60.0756415   3.5061674
  32.9899074  63.0299338  -5.7615779  33.2062689  63.9123976  -6.0626950
  32.5093141  62.6385552  -6.4910137  27.7298296  65.9885052   0.8154966
  27.5842876  66.3025355   1.7079248  27.2523499  66.6069952   0.2625865
  29.5894678  62.9787599   0.8635856  29.5756247  62.0828693   0.5268154
  30.3067106  62.9858263   1.4974142  31.4420809  63.4124940   2.9088983
  31.1838587  64.3342010   2.9073313  30.9105849  63.0155374   3.5989447
  22.2043958  68.5290396   3.7542627  21.6597426  69.3050204   3.8862902
  23.0823308  68.8761200   3.5961749  28.9931574  61.8601980  -3.8676574
  29.1147486  60.9318626  -3.6685687  28.7033617  61.8740666  -4.7798259
  31.8622765  59.5456890  -0.7309854  31.8844462  59.6096223  -1.6857875
  32.2790824  58.7061399  -0.5369348  42.2406389  69.2812150  -2.6930632
  42.6837535  68.5319475  -3.0911509  41.3632899  69.2722286  -3.0756900
  22.9909980  67.6560292   6.6472784  22.2491716  67.8042928   7.2337415
  22.6702724  67.9168558   5.7839534  30.9353642  77.1976270   6.4453174
  31.2440769  76.9525417   7.3175874  31.7329124  77.4022909   5.9572044
  28.4048126  74.8952189   0.7480852  27.7828136  74.2322894   0.4483080
  29.0752993  74.9213321   0.0654500  28.4772654  63.3733977  10.3413358
  28.5260809  64.2496100   9.9591128  29.0195168  62.8311370   9.7685002
  38.9627500  73.9175100   9.6214495  38.1723043  73.8999239   9.0818995
  38.7260854  74.4563394  10.3763532  39.0825375  70.7667567   6.9347224
  39.1323380  70.6017574   7.8762747  38.9739298  69.8994826   6.5445105
  36.3729137  66.7498495   8.2506531  37.2739000  66.6104960   7.9590528
  36.4477111  66.9152950   9.1904708  30.7071942  64.1265350   7.0959717
  29.8375252  64.4198916   6.8242306  30.9431423  64.7105795   7.8166981
  40.5843571  73.1864508   7.1789246  40.2928380  73.5494489   8.0152706
  39.9715703  72.4731517   7.0002578  41.7839254  70.7517388  -0.3008184
  42.6186145  71.1907192  -0.1370624  41.9198383  70.2756041  -1.1199938
  38.8330760  68.3097123   5.6469303  39.3084881  68.5024769   4.8388155
  37.9096325  68.3656309   5.4012687  33.4110976  60.3444966   4.6125137
  33.9292920  61.0805993   4.2871626  33.0566109  60.6508960   5.4471897
  33.6623570  56.7645249   0.1326034  33.9425324  56.0968438   0.7586461
  34.4474177  56.9574345  -0.3799302  37.5332429  65.1862883   3.8797609
  38.4849852  65.2860981   3.9009833  37.3635879  64.3941152   4.3895693
  35.5546808  62.2718466   4.0657010  34.9596740  62.5523479   3.3703499
  35.2696505  62.7612367   4.8373751  40.0120506  68.4069003   2.9939909
  39.9796827  67.4685003   3.1799593  40.6221130  68.4853039   2.2605734
  40.1614995  65.1980046   3.0398192  39.6454044  64.4138503   2.8528121
  41.0454943  64.8698763   3.2044711  37.8225722  58.9421062  -1.0005995
  37.6250543  58.6336150  -0.1162663  38.4325427  59.6682701  -0.8708066
  45.8297056  69.4685010   2.1345946  46.5600445  69.2070298   2.6953649
  45.2204002  68.7313731   2.1748014  43.9112353  67.6092872   2.7320397
  43.1845517  67.4748837   2.1236888  43.4959640  67.9169701   3.5377115
  31.7342530  71.3282802  10.4967770  32.6545539  71.5061401  10.6907816
  31.6992113  70.3838847  10.3447469  24.7304602  69.2383836   3.1390551
  24.9490612  70.1700944   3.1578585  25.1430376  68.8791811   3.9245355
  31.6508820  59.7451922  -4.8733761  30.8409548  59.3999007  -4.4978515
  32.3393237  59.4359465  -4.2846149  33.5799368  58.8229969  -3.2509464
  34.1330407  59.2425422  -2.5919441  33.8169455  57.8965717  -3.2086508
  29.6032468  64.8117042  12.5293300  29.5029195  65.7611399  12.4605391
  29.3854010  64.4835281  11.6569370  36.9578176  60.9330494  -3.7430800
  36.3776845  61.5915298  -4.1252747  36.6914108  60.1107838  -4.1543382
  35.4081742  60.3335551  -1.5409479  35.9081520  60.4452086  -2.3495161
  36.0517350  60.0296604  -0.9008671  29.4663738  68.2414181  11.3458362
  28.9830819  69.0414541  11.5522251  29.5524677  68.2522126  10.3925805
  25.3937075  72.1318716   3.3826795  26.3480329  72.1002658   3.3156727
  25.1949599  71.6709339   4.1977021  25.9836457  70.7019832   5.9497593
  26.8029346  71.1963910   5.9732430  26.2573265  69.7851800   5.9215160
  35.7403054  63.0930584  -4.6874452  34.8528909  63.3780235  -4.9054257
  36.1557043  62.9324347  -5.5347175  39.0917590  63.1177105  -0.9720112
  39.8677980  63.6073558  -0.6995495  38.3665724  63.5435159  -0.5148243
  41.5290148  63.8304724   0.0853828  42.1234639  63.5900460  -0.6252863
  41.6016732  63.1111855   0.7127365  35.7144077  68.6085120  -4.4724161
  35.6579279  69.0653671  -5.3116529  36.2672420  67.8475805  -4.6501319
  39.5248883  64.3974852  -3.6474042  39.2685817  63.9971488  -2.8165834
  38.9001751  65.1118646  -3.7723903  43.8361221  67.1370925  -1.1402750
  43.2760779  67.2064114  -0.3671188  43.2304724  66.9611910  -1.8603254
  36.4478857  69.7989901  -7.1771632  36.3927660  69.6334173  -8.1183188
  35.8224912  70.5065934  -7.0209442  21.2371372  65.0357966   6.6489790
  21.8830235  64.5256920   7.1377015  21.0288523  65.7726647   7.2233215
  33.7624764  72.1038813  12.1481931  34.6315923  72.2779465  11.7868566
  33.2831515  72.9233230  12.0257660  27.9310944  79.2235914   3.8271364
  28.8338191  79.2559524   4.1437859  27.7048314  78.2936365   3.8417700
  33.5727102  55.8940787  -3.3440377  32.8059497  55.3399274  -3.1983695
  33.9837807  55.9662656  -2.4826225  25.5768863  62.1825583  10.7464804
  26.4400324  61.8262388  10.9568129  25.0034273  61.8439478  11.4340209
  42.7126729  84.9189719   7.4474935  42.7015370  84.5242517   6.5755439
  42.8747368  84.1855792   8.0408707  39.4333990  87.7026831   6.3954119
  39.1423856  88.6072462   6.2800786  40.0690974  87.7443358   7.1098189
  40.3590197  85.0803679   2.9855479  40.9553769  84.8559702   2.2712442
  40.4165168  84.3388425   3.5880927  47.8992355  75.1875700   3.9908000
  47.5675680  76.0571111   3.7669215  47.3037969  74.8711984   4.6702031
  41.8661885  81.3260432   9.0136248  41.0895219  81.8854352   9.0039112
  42.5052448  81.8117215   9.5351118  49.6582665  78.1087225   2.8479224
  49.0157045  78.4019758   2.2019019  49.1537594  77.9940145   3.6532421
  40.1208257  84.1345885   8.5754215  40.8622941  84.6730929   8.2989038
  39.4145242  84.7612174   8.7325767  45.5963597  86.2775026   7.1726376
  46.0046953  85.8357436   6.4281009  44.8740858  85.7027653   7.4260569
  41.9494667  81.2147633   4.5459933  42.7955862  81.6387046   4.6894582
  41.8893304  80.5581257   5.2398496  45.0994112  78.8752001   6.2041107
  44.8555044  79.6294062   5.6675383  45.3754042  79.2537349   7.0388354
  44.6558804  78.0308434   1.7854945  43.7943283  78.3289688   2.0771682
  44.6821238  78.2478833   0.8535977  38.8569621  81.2885534   9.3769525
  38.2268281  81.9701814   9.6104922  38.7505709  81.1768615   8.4322663
  34.1514593  80.9557330   0.3035449  33.3613647  81.2114858  -0.1724440
  34.6425840  81.7705667   0.4087489  41.9335006  87.8446612   5.2101440
  41.9979439  88.3067019   6.0459612  41.2245930  87.2143977   5.3383750
  32.4352296  81.2087820   2.7350440  32.6860334  82.0934830   3.0008016
  32.9711844  81.0292422   1.9625532  38.1350363  75.5906299  11.7394776
  37.7417309  75.0372498  12.4142420  38.9516504  75.9016878  12.1301293
  41.0518324  77.0064178   9.3315032  41.7928038  77.6071332   9.2519495
  41.2836247  76.2641816   8.7733075  36.1959662  82.1920546   7.6093262
  36.0813178  81.2905803   7.9100361  35.3404180  82.4384243   7.2578079
  43.2751500  90.1338286   9.2080763  42.8315354  89.3474665   8.8901667
  43.9368714  90.3217437   8.5424653  41.8305792  87.9285215   8.0785672
  42.3634129  87.1673504   7.8484980  41.3019873  87.6358867   8.8209827
  44.9975487  73.0345281   3.6079314  44.6539757  73.9246923   3.5318425
  45.3654450  72.8446939   2.7448899  44.0772028  75.4049937   1.5728547
  43.5736823  75.3680072   0.7596353  44.3702635  76.3142679   1.6325204
  40.3214914  75.4888666   0.5794729  41.1867910  75.2931475   0.2200618
  40.3892422  75.2599018   1.5064086  37.9277233  77.7190874  -2.0488904
  38.5020985  77.4966056  -2.7815711  38.5148215  77.7879569  -1.2960303
  40.2299900  74.5932123  -3.3213835  39.5764313  74.2781140  -3.9457220
  40.1880375  73.9707864  -2.5954012  46.7963153  72.2938841  -1.2902948
  47.1022030  71.4336204  -1.5777033  47.5215758  72.8856461  -1.4903954
  44.6050804  81.6711518   5.8078516  44.9600192  81.8982991   6.6672981
  45.2522936  82.0029895   5.1855771  38.4990667  78.7788049   2.5924857
  39.1390047  78.6376808   1.8947820  37.6668198  78.4922562   2.2163459
  35.5019284  78.7488374  -2.6302157  35.7626101  79.6633707  -2.7392996
  36.3236456  78.2812817  -2.4805544  36.9744209  80.1626131   4.5396668
  37.6467263  79.9543493   3.8909317  36.1473996  79.9648217   4.1001900
  42.8769781  76.7888072   6.5562329  42.2297696  77.4878022   6.4626805
  43.6470797  77.2224216   6.9238577  46.2848579  87.0536924   9.6312882
  46.1334086  86.8247476   8.7142966  46.2753259  88.0107526   9.6444227
  43.0533916  84.6268837   4.6159149  43.9825976  84.7779997   4.4428116
  42.6324946  84.7152858   3.7607795  37.3771706  83.4368734   5.2999105
  37.2391504  82.7048973   5.9010644  38.2876630  83.3477634   5.0183293
  40.0054007  83.1488693   4.7882785  40.7153626  82.5081886   4.7469403
  39.9623315  83.4001588   5.7108966  38.7182941  80.1353911   6.6078424
  38.1820298  79.6844650   7.2600021  38.1299649  80.2699820   5.8648889
  34.4522062  79.2709919   3.6931419  34.3680251  78.6635589   2.9581829
  33.6304769  79.7618937   3.6940915  39.0369943  90.3578361   5.8828316
  39.7379403  90.9914843   6.0357711  38.5665058  90.6993092   5.1223956
  47.0664771  74.7233076   1.2080973  46.1527851  74.9537303   1.3763180
  47.4957872  74.8071520   2.0595005  46.8371229  82.9122968   3.7080867
  46.1842680  83.1598875   3.0533319  47.2151609  82.0987106   3.3743344
  42.8858802  83.6542779  10.1946904  42.2099439  83.5536908  10.8649279
  43.7086436  83.4981993  10.6582901  36.6046079  77.3084856   5.0326404
  36.6687405  78.1699687   4.6203802  36.5413199  76.6958858   4.2998763
  36.0798351  79.3807989   8.6799439  36.7070390  78.9985066   9.2936963
  35.2226270  79.1622191   9.0455131  46.4792460  89.7870964  10.2853174
  47.0232364  90.4000922   9.7908129  45.8979305  90.3450542  10.8020187
  36.3858141  79.2640415   0.5945342  35.6644727  79.8776382   0.4552815
  37.1751397  79.7998179   0.5161988  39.1884454  76.5994841   6.8685994
  39.7118856  76.8457138   7.6312303  38.9696788  77.4314876   6.4489131
  40.3936999  77.5408536   4.5535664  40.0533820  76.7416349   4.9556344
  39.6876006  77.8410247   3.9812498  41.0453471  74.6257849   3.0062987
  41.8679541  74.1518327   2.8841878  41.2891535  75.4048332   3.5061674
  38.5692050  81.3176969   0.8154966  38.4236631  81.6317272   1.7079248
  38.0917254  81.9361870   0.2625865  40.4288433  78.3079517   0.8635856
  40.4150002  77.4120610   0.5268154  41.1460861  78.3150181   1.4974142
  42.2814564  78.7416857   2.9088983  42.0232341  79.6633928   2.9073313
  41.7499604  78.3447292   3.5989447  33.0437712  83.8582314   3.7542627
  32.4991180  84.6342122   3.8862902  33.9217062  84.2053118   3.5961749
  42.7016519  74.8748808  -0.7309854  42.7238216  74.9388141  -1.6857875
  43.1184578  74.0353317  -0.5369348  33.8303734  82.9852210   6.6472784
  33.0885470  83.1334845   7.2337415  33.5096478  83.2460475   5.7839534
  39.3166408  78.7025895  10.3413358  39.3654564  79.5788018   9.9591128
  39.8588923  78.1603288   9.7685002  49.8021254  89.2467018   9.6214495
  49.0116798  89.2291157   9.0818995  49.5654609  89.7855312  10.3763532
  49.9219129  86.0959484   6.9347224  49.9717134  85.9309492   7.8762747
  49.8133052  85.2286743   6.5445105  47.2122891  82.0790412   8.2506531
  48.1132754  81.9396877   7.9590528  47.2870866  82.2444867   9.1904708
  41.5465697  79.4557267   7.0959717  40.6769006  79.7490833   6.8242306
  41.7825177  80.0397712   7.8166981  44.2504731  75.6736884   4.6125137
  44.7686674  76.4097911   4.2871626  43.8959863  75.9800877   5.4471897
  44.5017325  72.0937167   0.1326034  44.7819079  71.4260356   0.7586461
  45.2867932  72.2866262  -0.3799302  48.3726183  80.5154801   3.8797609
  49.3243606  80.6152898   3.9009833  48.2029634  79.7233069   4.3895693
  46.3940563  77.6010384   4.0657010  45.7990495  77.8815397   3.3703499
  46.1090259  78.0904285   4.8373751  42.5736284  86.6574719  10.4967770
  43.4939294  86.8353318  10.6907816  42.5385867  85.7130765  10.3447469
  35.5698357  84.5675754   3.1390551  35.7884367  85.4992862   3.1578585
  35.9824131  84.2083729   3.9245355  40.4426222  80.1408960  12.5293300
  40.3422949  81.0903317  12.4605391  40.2247764  79.8127199  11.6569370
  40.3057492  83.5706099  11.3458362  39.8224574  84.3706459  11.5522251
  40.3918431  83.5814044  10.3925805  36.2330830  87.4610633   3.3826795
  37.1874083  87.4294576   3.3156727  36.0343353  87.0001257   4.1977021
  36.8230212  86.0311749   5.9497593  37.6423101  86.5255828   5.9732430
  37.0967020  85.1143718   5.9215160  32.0765126  80.3649883   6.6489790
  32.7223990  79.8548837   7.1377015  31.8682277  81.1018565   7.2233215
  44.6018518  87.4330731  12.1481931  45.4709678  87.6071383  11.7868566
  44.1225270  88.2525148  12.0257660  44.4120856  71.2232705  -3.3440377
  43.6453252  70.6691191  -3.1983695  44.8231561  71.2954573  -2.4826225
  36.4162617  77.5117500  10.7464804  37.2794079  77.1554305  10.9568129
  35.8428028  77.1731395  11.4340209  48.9744118  90.9198217  11.7394776
  48.5811063  90.3664416  12.4142420  49.7910258  91.2308796  12.1301293
  47.2556372  92.8409418  10.7464804  48.1187833  92.4846223  10.9568129
  46.6821782  92.5023313  11.4340209  35.6398706  51.4641169  -2.9901519
  36.1838610  52.0771127  -3.4846564  35.0585551  52.0220747  -2.4734506
  42.7126730  61.9251842  -5.8279758  42.7015371  61.5304640  -6.6999254
  42.8747370  61.1917914  -5.2345986  39.4333991  64.7088953  -6.8800574
  39.1423857  65.6134584  -6.9953908  40.0690976  64.7505481  -6.1656504
  40.3590198  62.0865802 -10.2899214  40.9553770  61.8621824 -11.0042251
  40.4165170  61.3450547  -9.6873766  41.8661886  58.3322555  -4.2618446
  41.0895220  58.8916475  -4.2715581  42.5052449  58.8179338  -3.7403576
  40.1208258  61.1408008  -4.7000479  40.8622943  61.6793052  -4.9765655
  39.4145244  61.7674297  -4.5428927  45.5963598  63.2837148  -6.1028317
  46.0046954  62.8419559  -6.8473685  44.8740859  62.7089776  -5.8494124
  41.9494668  58.2209755  -8.7294760  42.7955863  58.6449169  -8.5860111
  41.8893306  57.5643380  -8.0356197  45.0994113  55.8814124  -7.0713587
  44.8555045  56.6356184  -7.6079311  45.3754044  56.2599471  -6.2366339
  38.8569622  58.2947656  -3.8985169  38.2268282  58.9763937  -3.6649772
  38.7505710  58.1830738  -4.8432030  41.9335007  64.8508735  -8.0653253
  41.9979440  65.3129142  -7.2295081  41.2245931  64.2206100  -7.9370943
  38.1350365  52.5968422  -1.5359918  37.7417310  52.0434621  -0.8612273
  38.9516505  52.9079000  -1.1453400  41.0518326  54.0126301  -3.9439661
  41.7928039  54.6133454  -4.0235199  41.2836248  53.2703939  -4.5021618
  36.1959664  59.1982668  -5.6661431  36.0813179  58.2967926  -5.3654332
  35.3404181  59.4446365  -6.0176615  43.2751501  67.1400409  -4.0673931
  42.8315356  66.3536787  -4.3853026  43.9368715  67.3279559  -4.7330040
  41.8305794  64.9347338  -5.1969021  42.3634130  64.1735626  -5.4269713
  41.3019875  64.6420990  -4.4544867  44.6050806  58.6773640  -7.4676178
  44.9600193  58.9045114  -6.6081712  45.2522937  59.0092017  -8.0898923
  42.8769782  53.7950195  -6.7192365  42.2297697  54.4940144  -6.8127888
  43.6470798  54.2286339  -6.3516116  46.2848580  64.0599047  -3.6441811
  46.1334087  63.8309598  -4.5611728  46.2753260  65.0169648  -3.6310466
  43.0533917  61.6330960  -8.6595545  43.9825977  61.7842119  -8.8326578
  42.6324947  61.7214980  -9.5146898  37.3771708  60.4430857  -7.9755588
  37.2391506  59.7111096  -7.3744049  38.2876631  60.3539757  -8.2571401
  40.0054008  60.1550816  -8.4871909  40.7153627  59.5144008  -8.5285290
  39.9623316  60.4063711  -7.5645728  38.7182942  57.1416034  -6.6676269
  38.1820299  56.6906772  -6.0154673  38.1299651  57.2761943  -7.4105805
  39.0369945  67.3640483  -7.3926377  39.7379404  67.9976966  -7.2396983
  38.5665060  67.7055215  -8.1530738  46.8371231  59.9185091  -9.5673827
  46.1842681  60.1660998 -10.2221374  47.2151611  59.1049229  -9.9011349
  42.8858804  60.6604902  -3.0807790  42.2099441  60.5599031  -2.4105414
  43.7086438  60.5044115  -2.6171792  36.0798352  56.3870111  -4.5955255
  36.7070391  56.0047189  -3.9817730  35.2226271  56.1684313  -4.2299562
  46.4792461  66.7933087  -2.9901519  47.0232365  67.4063045  -3.4846564
  45.8979306  67.3512665  -2.4734506  39.3166410  55.7088017  -2.9341335
  39.3654565  56.5850140  -3.3163565  39.8588924  55.1665410  -3.5069692
  49.8021255  66.2529141  -3.6540198  49.0116799  66.2353280  -4.1935699
  49.5654610  66.7917434  -2.8991161  49.9219130  63.1021607  -6.3407469
  49.9717135  62.9371614  -5.3991947  49.8133054  62.2348866  -6.7309589
  47.2122893  59.0852535  -5.0248163  48.1132755  58.9459000  -5.3164165
  47.2870867  59.2506990  -4.0849985  41.5465698  56.4619390  -6.1794976
  40.6769007  56.7552956  -6.4512388  41.7825178  57.0459835  -5.4587713
  48.3726184  57.5216923  -9.3957084  49.3243607  57.6215021  -9.3744860
  48.2029635  56.7295192  -8.8859000  42.5736286  63.6636842  -2.7786924
  43.4939295  63.8415441  -2.5846877  42.5385869  62.7192887  -2.9307224
  40.4426223  57.1471082  -0.7461393  40.3422950  58.0965439  -0.8149302
  40.2247765  56.8189321  -1.6185323  40.3057493  60.5768221  -1.9296332
  39.8224575  61.3768581  -1.7232443  40.3918433  60.5876166  -2.8828888
  36.2330831  64.4672756  -9.8927898  37.1874085  64.4356698  -9.9597966
  36.0343355  64.0063380  -9.0777672  36.8230213  63.0373872  -7.3257100
  37.6423102  63.5317951  -7.3022263  37.0967021  62.1205840  -7.3539533
  44.6018520  64.4392853  -1.1272763  45.4709679  64.6133506  -1.4886128
  44.1225271  65.2587270  -1.2497033  36.4162618  54.5179623  -2.5289889
  37.2794080  54.1616428  -2.3186565  35.8428029  54.1793518  -1.8414485
  48.9744119  67.9260340  -1.5359918  48.5811065  67.3726538  -0.8612273
  49.7910259  68.2370918  -1.1453400  47.2556373  69.8471541  -2.5289889
  48.1187834  69.4908346  -2.3186565  46.6821783  69.5085436  -1.8414485
 106.5027006 106.5027006 106.5027006 109.4712190 109.4712190 109.4712190
