Cpptraj Generated Restart                                                       
   69
   1.2140000  -0.0080000  -0.0870000   2.3840000  -0.0570000   0.0510000
   3.1110000   0.8840000   0.8270000   3.2190000  -1.1770000  -0.6290000
   2.4300000   2.0130000   1.4750000   4.5930000  -1.2670000  -0.4410000
   2.4760000  -2.1050000  -1.3360000   2.9210000   3.3750000   1.0000000
   5.2600000  -2.4080000  -0.9270000   3.1780000  -3.1740000  -1.9160000
   2.3000000   4.0190000  -0.0710000   4.0290000   4.0010000   1.5890000
   4.5850000  -3.3320000  -1.7310000   6.8170000  -2.7020000  -0.5730000
   2.7730000   5.2450000  -0.5520000   4.5660000   5.1710000   1.0350000
   5.3150000  -4.5350000  -2.3040000   7.3850000  -4.2630000  -0.7410000
   3.9210000   5.8430000  -0.0230000   6.9050000  -4.5620000  -2.1810000
   8.3400000  -5.0490000   0.4760000   4.3610000   7.0650000  -0.4820000
   8.4270000  -4.2870000   1.4610000   9.4760000  -6.4890000   0.5800000
   5.0880000   7.9740000   0.3980000   4.3600000   7.4240000  -1.9090000
  10.7660000  -7.5210000   1.2130000  10.1520000  -6.3950000  -0.6060000
   4.5850000   9.4180000   0.1830000   3.9060000   8.8930000  -2.0670000
  10.9490000  -8.1930000  -0.0120000  12.0490000  -8.3670000   2.2090000
  10.2840000  -7.6190000  -1.0420000   4.7170000   9.8220000  -1.2400000
  11.9290000  -9.1330000  -0.2590000  13.2380000  -9.1510000   1.6750000
   4.3020000  11.2040000  -1.4310000  13.1570000  -9.1370000   0.2840000
   4.0850000   0.7790000   0.9320000   2.5900000   1.9450000   2.5300000
   1.3940000   1.9450000   1.2160000   1.4530000  -2.0160000  -1.4330000
   2.6650000  -3.8610000  -2.4900000   1.4770000   3.5830000  -0.5160000
   4.4520000   3.5960000   2.4390000   6.9700000  -2.4170000   0.4470000
   7.3650000  -2.1420000  -1.3020000   2.2640000   5.7180000  -1.3140000
   5.4510000   5.5480000   1.4090000   5.0730000  -4.5900000  -3.3450000
   4.9820000  -5.3620000  -1.7120000   7.3140000  -3.8260000  -2.8410000
   7.2380000  -5.5450000  -2.4410000   6.1330000   7.9250000   0.1750000
   4.9240000   7.6900000   1.4160000   3.6870000   6.7830000  -2.4390000
   5.3470000   7.3100000  -2.3080000  10.4890000  -5.5330000  -1.0630000
   5.1610000  10.0830000   0.7900000   3.5500000   9.4620000   0.4540000
   2.8810000   8.9710000  -1.7690000   4.0340000   9.1690000  -3.0930000
  11.9560000  -8.3060000   3.2350000   5.6940000   9.7670000  -1.5260000
  11.6990000  -9.8970000  -0.9140000   3.2770000  11.3120000  -1.1420000
   4.4120000  11.4710000  -2.4610000   4.9120000  11.8460000  -0.8290000
  14.0050000  -9.1300000  -0.3040000
