Cpptraj Generated Restart                                                       
   69
  31.1070000   5.1430000 -21.7600000  30.1730000   5.5500000 -22.3540000
  30.0290000   6.9120000 -22.7290000  29.0150000   4.5980000 -22.7640000
  31.0390000   7.9090000 -22.3510000  28.7060000   3.4720000 -22.0110000
  28.2810000   5.0180000 -23.8580000  32.1000000   8.1380000 -23.4200000
  27.5330000   2.7590000 -22.3260000  27.1830000   4.2260000 -24.2310000
  31.8830000   7.7220000 -24.7350000  33.3340000   8.7300000 -23.1140000
  26.8030000   3.0750000 -23.4760000  26.9800000   1.5630000 -21.3780000
  32.8690000   7.8780000 -25.7160000  34.3570000   8.7840000 -24.0710000
  25.5680000   2.2720000 -23.8510000  25.3770000   1.1190000 -21.5190000
  34.1300000   8.3970000 -25.4070000  25.2960000   0.9190000 -23.0510000
  24.3430000   0.8910000 -20.1450000  35.0830000   8.5760000 -26.3860000
  24.9820000   1.1930000 -19.1160000  22.7480000   0.0550000 -19.7790000
  34.7270000   8.4880000 -27.7980000  36.4250000   9.1060000 -26.0990000
  21.3390000  -0.4550000 -18.8380000  23.0710000  -1.2590000 -19.9820000
  35.8150000   7.7010000 -28.5600000  37.4710000   8.3260000 -26.9280000
  21.0580000  -1.5440000 -19.6860000  19.9920000  -0.6750000 -17.6180000
  22.0420000  -1.7930000 -20.5830000  37.1500000   8.3250000 -28.3770000
  20.0680000  -2.4810000 -19.4680000  19.1950000  -1.9460000 -17.3690000
  38.1650000   7.6200000 -29.1460000  19.6550000  -2.9100000 -18.2640000
  31.0030000   6.8070000 -22.6240000  31.1990000   7.8410000 -21.2960000
  30.0030000   7.8410000 -22.6100000  27.2580000   5.1070000 -23.9550000
  26.6700000   3.5390000 -24.8050000  31.0600000   7.2860000 -25.1800000
  33.7570000   8.3250000 -22.2640000  27.1330000   1.8480000 -20.3580000
  27.5280000   2.1230000 -22.1070000  32.3600000   8.3510000 -26.4780000
  35.2420000   9.1610000 -23.6970000  25.3260000   2.2170000 -24.8920000
  25.2350000   1.4450000 -23.2590000  25.7050000   1.6550000 -23.7110000
  25.6290000  -0.0640000 -23.3110000  35.7720000   8.4390000 -28.0210000
  34.5630000   8.2040000 -26.7800000  35.7520000   8.4650000 -26.6290000
  37.4120000   8.9920000 -26.4980000  23.4080000  -0.3970000 -20.4390000
  36.3910000   8.3660000 -27.9530000  34.7800000   7.7450000 -28.2890000
  36.4460000   8.4040000 -26.6300000  37.5990000   8.6020000 -27.9540000
  19.8990000  -0.6140000 -16.5920000  38.1270000   8.2700000 -28.6630000
  19.8380000  -3.2450000 -20.1230000  37.1400000   7.7280000 -28.8570000
  38.2750000   7.8870000 -30.1760000  38.7750000   8.2620000 -28.5440000
  20.5030000  -2.9030000 -18.8520000
