Cpptraj Generated Restart                                                       
   83
  30.7840000   4.8590000 -21.7300000  29.7510000   5.2120000 -22.2970000
  29.5170000   6.5180000 -22.6650000  28.6720000   4.2060000 -22.5940000
  30.4550000   7.5750000 -22.3430000  28.3200000   3.2970000 -21.6420000
  28.0940000   4.2650000 -23.8600000  31.5910000   7.6530000 -23.3270000
  27.3360000   2.4050000 -21.9720000  27.1210000   3.3360000 -24.2160000
  31.3440000   7.6360000 -24.7000000  32.9130000   7.8080000 -22.8950000
  26.7360000   2.3690000 -23.2580000  26.9120000   1.3950000 -20.8810000
  26.5420000   3.4240000 -25.5580000  32.3990000   7.7380000 -25.6120000
  33.9650000   7.9070000 -23.8200000  25.6640000   1.3420000 -23.5570000
  25.6650000   0.6810000 -21.1880000  25.6760000   4.3570000 -26.1690000
  26.8180000   2.5310000 -26.5850000  33.7350000   7.8650000 -25.2000000
  25.5830000   0.1920000 -22.5570000  24.6690000   0.4930000 -20.2050000
  25.3960000   4.0660000 -27.4420000  26.1150000   2.9580000 -27.6750000
  34.7310000   8.0190000 -26.1510000  24.9670000   0.4920000 -19.0100000
  23.2630000   0.5280000 -20.6710000  26.0850000   2.3590000 -28.9880000
  34.4200000   8.2820000 -27.5620000  36.0270000   8.5920000 -25.7380000
  22.7120000   1.7970000 -20.6920000  22.1900000  -0.3230000 -20.3840000
  35.5630000   7.7290000 -28.4480000  37.1450000   8.0340000 -26.6500000
  21.7350000   1.7590000 -19.7540000  21.4340000   0.4420000 -19.4470000
  21.8300000  -1.6760000 -20.8700000  36.8890000   8.2850000 -28.0890000
  21.1680000   2.8710000 -19.1580000  20.5000000   0.1890000 -18.4320000
  37.9350000   7.6800000 -28.9080000  20.2900000   2.6040000 -18.1090000
  19.9720000   1.2900000 -17.7410000  30.3070000   6.8710000 -23.1360000
  29.5790000   7.3840000 -21.7590000  31.1810000   6.7980000 -22.2260000
  27.2420000   3.9230000 -23.3910000  32.0050000   6.9130000 -24.3740000
  32.5090000   8.4950000 -22.2410000  26.6530000   1.3940000 -21.9190000
  27.7160000   0.7250000 -20.6610000  32.7900000   7.0360000 -26.2600000
  33.2890000   8.6180000 -24.1410000  25.8030000   1.2670000 -22.4990000
  25.0850000   2.1940000 -23.8470000  26.0520000   5.1380000 -26.7280000
  26.6430000   1.5160000 -26.5290000  26.2660000  -0.5050000 -22.1190000
  25.9150000   1.1970000 -22.3940000  25.8760000   1.3160000 -28.8710000
  25.1660000   2.9070000 -29.0060000  26.6860000   2.6970000 -28.1700000
  34.6140000   9.3020000 -27.8220000  33.6830000   8.2500000 -26.7870000
  36.8860000   8.0780000 -25.3600000  36.3050000   9.5870000 -26.0190000
  34.6920000   8.2300000 -28.8170000  35.3460000   6.7270000 -28.1450000
  36.9430000   7.0210000 -26.3710000  37.8840000   8.0920000 -27.4210000
  22.8190000  -2.0140000 -20.6370000  21.7150000  -0.6620000 -20.5490000
  21.6730000  -1.7360000 -21.9270000  37.0880000   9.2250000 -28.4300000
  20.8800000   2.5280000 -18.2280000  20.8080000   0.6310000 -19.3120000
  37.7180000   6.6860000 -28.5760000  38.6670000   7.6440000 -29.6870000
  37.0410000   8.1350000 -29.2800000  19.2840000   2.5970000 -17.8800000
  19.2660000   1.6330000 -18.4110000
