Cpptraj Generated Restart                                                       
   73
   1.8670000   1.1480000  -0.5900000   2.4170000   0.1380000  -0.1470000
   2.3810000  -0.2090000   1.1900000   3.1230000  -0.8160000  -1.0630000
   1.6750000   0.5820000   2.1670000   4.0450000  -1.6800000  -0.5460000
   2.7580000  -0.7750000  -2.4080000   2.6060000   1.0280000   3.2590000
   4.6560000  -2.5310000  -1.4230000   3.3770000  -1.6590000  -3.2750000
   3.3360000   2.2100000   3.1170000   2.7900000   0.2600000   4.4110000
   4.3470000  -2.5420000  -2.7930000   5.7350000  -3.4730000  -0.8780000
   4.2300000   2.6100000   4.1130000   3.6860000   0.6740000   5.4050000
   4.9600000  -3.5380000  -3.7430000   6.0330000  -4.5890000  -1.7820000
   4.4290000   1.8540000   5.2770000   6.2000000  -4.2310000  -3.1830000
   6.4470000  -5.8290000  -1.2710000   5.2780000   2.3210000   6.2620000
   6.9090000  -5.9200000  -0.1320000   6.0560000  -7.0070000  -2.0610000
   5.1240000   1.9280000   7.6670000   6.6540000   2.7160000   5.9120000
   4.9100000  -6.8100000  -2.8120000   6.0850000  -8.3770000  -1.7670000
   5.5830000   3.1040000   8.5620000   7.1090000   3.8640000   6.8450000
   4.0420000  -7.7430000  -2.3550000   4.7080000  -8.6830000  -1.5880000
   7.2000000  -9.3480000  -1.6610000   6.9760000   3.5280000   8.2840000
   2.6870000  -7.7200000  -2.5700000   3.9600000  -9.6690000  -0.9250000
   7.3300000   4.6790000   9.1120000   1.9410000  -8.6750000  -1.8700000
   2.5630000  -9.6170000  -1.0430000   2.8510000  -1.0220000   1.4840000
   0.8890000  -0.0050000   2.5930000   1.2720000   1.4470000   1.6830000
   2.0490000  -0.1060000  -2.7470000   3.1220000  -1.6660000  -4.2750000
   3.2150000   2.7910000   2.2730000   2.2610000  -0.6190000   4.5310000
   5.3990000  -3.8720000   0.0560000   6.6330000  -2.9010000  -0.7700000
   4.7580000   3.4880000   3.9890000   3.8000000   0.0960000   6.2520000
   5.2360000  -3.0250000  -4.6400000   4.2280000  -4.2980000  -3.9170000
   7.0370000  -3.5710000  -3.2760000   6.3570000  -5.1320000  -3.7400000
   5.7250000   1.0660000   7.8680000   4.1000000   1.6920000   7.8700000
   6.6840000   3.0470000   4.8960000   7.3080000   1.8770000   6.0310000
   5.5160000   2.8000000   9.5860000   4.9450000   3.9370000   8.3510000
   6.5110000   4.7280000   6.6390000   8.1460000   4.0420000   6.6510000
   8.1280000  -8.8470000  -1.8420000   7.0670000 -10.1250000  -2.3850000
   7.2110000  -9.7740000  -0.6790000   7.6150000   2.7660000   8.5100000
   2.2440000  -7.0400000  -3.2080000   4.4230000 -10.4060000  -0.3710000
   6.6710000   5.4930000   8.8910000   8.3390000   4.9700000   8.9070000
   7.2380000   4.4160000  10.1460000   0.9130000  -8.6850000  -1.9650000
   1.9840000 -10.2860000  -0.5110000
