Cpptraj Generated Restart                                                       
   70
   1.0450000   0.0510000  -0.0690000   2.2230000  -0.0010000  -0.1140000
   2.9860000  -0.5560000   0.9740000   3.0230000   0.5150000  -1.3300000
   2.2850000  -1.0390000   2.1550000   4.4130000   0.4340000  -1.4390000
   2.2150000   1.0230000  -2.3590000   2.6990000  -0.3190000   3.4290000
   5.0430000   0.7690000  -2.6580000   2.8810000   1.4760000  -3.5270000
   2.0080000   0.8150000   3.8770000   3.8060000  -0.7380000   4.1810000
   4.2880000   1.3560000  -3.6770000   6.6410000   0.5020000  -2.9390000
   2.3800000   1.4750000   5.0390000   4.2560000   0.0200000   5.2710000
   4.9480000   1.7590000  -5.0010000   7.1610000   0.4170000  -4.5270000
   3.5250000   1.1130000   5.7550000   6.5500000   1.7310000  -5.0730000
   8.3560000  -0.7380000  -5.0490000   3.8630000   1.7780000   6.9110000
   8.5500000  -1.5280000  -4.0820000   9.3470000  -1.1750000  -6.5580000
   4.5850000   1.1000000   7.9850000   3.7060000   3.2350000   7.0670000
  10.3220000  -1.0930000  -8.2000000   8.2630000  -0.6660000  -7.2590000
   3.9690000   1.4700000   9.3500000   3.1450000   3.5510000   8.4730000
   9.2230000  -1.3270000  -8.9600000  11.7270000  -1.1500000  -9.3800000
   8.0350000  -1.3210000  -8.3800000   3.9600000   2.9370000   9.5510000
   9.2090000  -1.3520000 -10.3100000  11.4940000  -1.5020000 -10.7280000
   3.4480000   3.2870000  10.8710000  10.1880000  -1.3450000 -11.1900000
   3.9670000  -0.6080000   0.9200000   2.4910000  -2.0830000   2.2710000
   1.2420000  -0.8520000   2.0070000   1.1880000   1.0650000  -2.2710000
   2.3300000   1.9050000  -4.2870000   1.2050000   1.1660000   3.3310000
   4.2940000  -1.6120000   3.9290000   6.8930000  -0.4270000  -2.4720000
   7.1280000   1.3690000  -2.5460000   1.7970000   2.2540000   5.3830000
   5.1460000  -0.2330000   5.7270000   4.6350000   2.7580000  -5.2230000
   4.6330000   1.0130000  -5.7000000   6.9310000   2.5490000  -4.4960000
   6.8240000   1.8060000  -6.1040000   5.6120000   1.4010000   7.9670000
   4.5150000   0.0420000   7.8430000   3.0300000   3.6010000   6.3230000
   4.6590000   3.7080000   6.9510000   7.6990000   0.1360000  -6.9380000
   4.5440000   1.0140000  10.1290000   2.9590000   1.1170000   9.3730000
   2.1460000   3.1750000   8.5380000   3.1700000   4.6130000   8.6060000
  12.6830000  -0.9250000  -9.0600000   4.9130000   3.2960000   9.5060000
   8.2650000  -1.3810000 -10.7260000  12.2480000  -1.8560000 -11.3370000
   2.4440000   2.9310000  10.9710000   3.4620000   4.3510000  10.9890000
   4.0620000   2.8380000  11.6230000   9.9940000  -1.2270000 -12.1960000
