Cpptraj Generated Restart                                                       
   72
   1.8710000  -0.7230000  -0.0070000   2.1980000   0.9580000   0.0840000
   0.1900000  -0.4610000   0.0190000   3.5380000   1.5270000   0.0790000
   1.0260000   1.6890000   0.1560000  -0.1390000   0.8740000   0.1310000
  -0.8180000  -1.5540000  -0.1350000   3.7260000   2.7420000   0.1020000
   4.5840000   0.6360000   0.0550000  -1.5410000   1.3810000   0.1530000
  -2.2240000  -1.0120000   0.1720000   5.9630000   1.0660000   0.0840000
  -2.4500000   0.3610000  -0.3200000   6.7020000   0.6400000  -1.1550000
  -3.6670000   0.6360000  -0.9290000   6.2760000   1.0750000  -2.4120000
   7.8560000  -0.1500000  -1.0780000  -4.3150000  -0.3110000  -1.3910000
  -4.2160000   2.0130000  -1.0310000   6.9720000   0.6950000  -3.5600000
   8.5550000  -0.5180000  -2.2390000  -5.5970000   1.9460000  -1.2340000
  -3.8300000   3.1260000  -1.7980000   8.1130000  -0.1210000  -3.5030000
  -5.7380000   2.2350000  -2.5600000  -4.6380000   2.9780000  -2.9680000
  -2.7890000   4.1700000  -1.6160000   8.7480000  -0.4540000  -4.6920000
  -6.7560000   1.8150000  -3.4050000  -4.5610000   3.3890000  -4.3070000
  10.1680000  -0.8350000  -4.7310000   7.9340000  -1.2290000  -5.6510000
  -7.8400000   1.0460000  -2.8940000  -6.5930000   2.1090000  -4.7590000
  -5.5140000   2.8840000  -5.2040000  10.6990000  -0.6360000  -6.1780000
   8.4850000  -1.0080000  -7.0750000  -8.7400000   0.4370000  -2.4910000
   9.9130000  -1.3840000  -7.1910000  10.4010000  -1.1040000  -8.5390000
   1.0000000   2.7180000   0.2220000  -0.5870000  -2.3480000   0.5450000
  -0.7910000  -1.9210000  -1.1390000   4.3870000  -0.3280000   0.0170000
  -1.6150000   2.2410000  -0.4800000  -1.8010000   1.6410000   1.1570000
  -2.3660000  -1.0200000   1.2320000  -2.9210000  -1.6450000  -0.3370000
   6.4430000   0.6380000   0.9390000   5.9790000   2.1350000   0.1320000
   5.4430000   1.6790000  -2.4920000   8.1950000  -0.4670000  -0.1570000
   6.6370000   1.0240000  -4.4790000   9.4090000  -1.0910000  -2.1560000
  -2.3340000   4.0560000  -0.6540000  -3.2390000   5.1380000  -1.6870000
  -2.0440000   4.0670000  -2.3770000  -3.8280000   4.0430000  -4.6220000
  10.2740000  -1.8610000  -4.4470000  10.7270000  -0.2260000  -4.0510000
   6.9170000  -0.8990000  -5.6060000   7.9790000  -2.2690000  -5.4050000
  -7.2770000   1.7500000  -5.4430000  -5.4190000   3.0870000  -6.2110000
  11.7140000  -0.9720000  -6.2180000  10.6130000   0.4050000  -6.4100000
   8.3800000   0.0270000  -7.3280000   7.9270000  -1.6310000  -7.7420000
  10.0190000  -2.3840000  -7.0200000  10.3010000  -0.0580000  -8.7440000
   9.8280000  -1.6630000  -9.2490000  11.4310000  -1.3840000  -8.6110000
