Cpptraj Generated Restart                                                       
   73
   6.4390000  -2.5480000   1.1750000   6.0460000  -4.1980000   1.0030000
   5.1590000  -1.9940000   0.1940000   6.7420000  -5.2940000   1.5380000
   4.8850000  -4.3690000   0.2570000   4.3430000  -3.0860000  -0.1860000
   4.9390000  -0.5420000  -0.0300000   7.8560000  -5.1120000   2.2580000
   6.2830000  -6.5930000   1.3200000   4.4180000  -5.7080000   0.0690000
   3.0470000  -3.0610000  -0.9610000   3.8020000  -0.1710000  -0.3420000
   5.9530000   0.4900000   0.1010000   5.1230000  -6.8000000   0.5930000
   7.4430000   0.3140000   0.1950000   5.4230000   1.8170000  -0.2020000
   8.3600000   1.5660000   0.1400000   6.3030000   3.0410000  -0.0320000
   9.7430000   1.4270000   0.2520000   7.7740000   2.8250000   0.0270000
  10.4950000   2.5830000   0.2690000   8.5820000   3.9660000   0.0290000
  12.0160000   2.5930000   0.4120000   9.9500000   3.8520000   0.1550000
  12.6090000   3.6700000   0.5240000  12.7060000   1.4050000   0.3870000
  14.1610000   1.4300000   0.3580000  14.7590000   0.1670000   0.9060000
  15.6370000  -0.5990000   0.1400000  14.4610000  -0.2530000   2.2080000
  16.1400000  -1.7960000   0.6470000  14.9570000  -1.4650000   2.7010000
  15.7850000  -2.2740000   1.9190000  16.3010000  -3.4900000   2.3410000
  16.3960000  -3.8410000   3.7660000  15.9970000  -4.6570000   1.4890000
  17.4730000  -4.9490000   3.9400000  17.1110000  -5.7060000   1.6720000
  17.2330000  -6.1380000   3.0830000  18.3160000  -7.1080000   3.2190000
   6.8070000  -7.3970000   1.7000000   3.5470000  -5.8720000  -0.4610000
   2.7970000  -2.0500000  -1.2050000   2.2670000  -3.4880000  -0.3650000
   3.1590000  -3.6280000  -1.8620000   4.7780000  -7.7600000   0.4360000
   7.7340000  -0.3220000  -0.6150000   7.5920000  -0.0670000   1.1840000
   4.5690000   1.9600000   0.4280000   5.2530000   1.7800000  -1.2580000
   6.0120000   3.5210000   0.8790000   6.1460000   3.6150000  -0.9210000
   8.1520000   4.8990000  -0.0660000  10.5520000   4.6900000   0.1650000
  12.2220000   0.5480000   0.3880000  14.5040000   2.2560000   0.9450000
  14.4690000   1.5240000  -0.6620000  15.9140000  -0.2800000  -0.8020000
  13.8680000   0.3390000   2.8110000  16.7950000  -2.3470000   0.0700000
  14.7070000  -1.7660000   3.6560000  15.4500000  -4.2030000   4.1110000
  16.6690000  -2.9780000   4.3350000  15.9530000  -4.3530000   0.4640000
  15.0520000  -5.0760000   1.7680000  17.4760000  -5.2620000   4.9630000
  18.4110000  -4.5290000   3.6440000  18.0410000  -5.2800000   1.3590000
  16.8610000  -6.5630000   1.0820000  16.3690000  -6.5900000   3.3820000
  19.2370000  -6.6600000   2.9120000  18.1110000  -7.9600000   2.6040000
  18.3930000  -7.4170000   4.2410000
