Cpptraj Generated Restart                                                       
   68
   0.0010000  10.1330000   2.9700000   1.6890000  10.4630000   2.7710000
   2.2690000  11.6070000   3.1600000   2.4890000   9.4000000   2.1860000
   3.6170000  11.7590000   2.9540000   3.7930000   9.5740000   1.9500000
   4.3880000  12.8290000   3.2740000   4.3990000  10.7750000   2.3360000
   5.5980000  12.5180000   2.7900000   5.6540000  11.2400000   2.1040000
   6.7960000  10.6820000   1.3290000   7.6910000  11.5560000   1.3100000
   7.1760000   9.1330000   1.1010000   7.3560000   7.6260000   0.0720000
   8.4760000   9.4210000   1.5240000   8.9250000   6.7090000  -0.2480000
   9.1740000   8.1990000   1.6420000   9.6060000   7.0960000   0.8970000
  10.3010000   5.9390000  -0.5080000  11.0890000   6.7550000   1.5730000
  11.5570000   6.4580000  -0.0150000  13.0180000   6.5200000  -0.1320000
  13.7960000   5.5690000  -0.0960000  13.5250000   7.8290000  -0.0960000
  12.6640000   8.9970000  -0.0430000  13.2540000  10.1750000  -0.7060000
  13.1420000  10.3060000  -2.0860000  13.8810000  11.1440000   0.0640000
  13.7900000  11.3510000  -2.7100000  14.4530000  12.2250000  -0.5680000
  14.4910000  12.3120000  -1.9650000  15.2710000  13.2550000  -2.5830000
  14.9280000  13.7670000  -3.9090000  16.2350000  14.0740000  -1.8360000
  16.2210000  13.9650000  -4.7110000  17.4840000  14.3200000  -2.6990000
  17.1300000  14.8990000  -4.0120000  18.3170000  15.1550000  -4.8060000
   1.7150000  12.3560000   3.6040000   2.0440000   8.4990000   1.9500000
   4.3450000   8.8340000   1.4890000   6.4200000  13.1330000   2.8960000
   6.9900000   7.9020000  -0.8950000   6.8570000   6.9170000   0.7000000
   8.4480000   9.9180000   2.4710000   8.9630000  10.0630000   0.8200000
   8.6000000   7.7130000   2.4030000  10.1160000   8.6910000   1.5160000
  10.2930000   5.0530000  -1.0370000  14.5010000   7.9600000  -0.1070000
  12.4790000   9.2380000   0.9820000  11.7620000   8.7540000  -0.5640000
  12.5840000   9.6320000  -2.6340000  13.9180000  11.0560000   1.0920000
  13.7580000  11.4280000  -3.7390000  14.8610000  12.9850000  -0.0020000
  14.4180000  14.7030000  -3.8130000  14.2900000  13.0730000  -4.4140000
  16.5170000  13.5620000  -0.9390000  15.7860000  15.0130000  -1.5870000
  15.9800000  14.3640000  -5.6740000  16.7110000  13.0200000  -4.8140000
  17.9880000  13.3890000  -2.8550000  18.1170000  15.0130000  -2.1860000
  16.6610000  15.7940000  -3.8720000  18.8380000  14.2350000  -4.9740000
  18.9560000  15.8360000  -4.2840000  18.0330000  15.5810000  -5.7450000
