default_name
  9297
  53.3620000   8.8440000  -3.6450000  53.1506812   9.5390832  -4.3466443
  52.7832702   8.0323540  -3.8074901  54.3648598   8.7440825  -3.5787557
  52.9410000   9.3640000  -2.3520000  52.1932145   8.7002180  -1.9180535
  54.1390000   9.4640000  -1.3770000  53.7898649   9.1538505  -0.3921085
  54.9061232   8.7720040  -1.7245106  54.6850000  10.7740000  -1.2950000
  55.4211416  10.7758499  -0.6788085  52.2630000  10.7200000  -2.5330000
  52.2240000  11.2810000  -3.6380000  51.7100000  11.2300000  -1.4340000
  51.7215979  10.6813569  -0.5860875  51.0250000  12.5120000  -1.4160000
  50.7816040  12.8156478  -2.4341628  49.7320000  12.4130000  -0.6150000
  49.9479298  11.9009784   0.3227139  49.3809962  13.4232006  -0.4043078
  48.6680000  11.6590000  -1.3640000  49.0040733  10.6375426  -1.5422703
  47.7516532  11.6416972  -0.7739905  48.3400000  12.4580000  -2.9430000
  47.7420000  14.0320000  -2.3440000  48.5179560  14.5134334  -1.7488419
  47.4856026  14.6696680  -3.1900145  46.8571929  13.8742647  -1.7272851
  51.8980000  13.6170000  -0.8670000  51.3830000  14.6490000  -0.4210000
  53.2080000  13.4110000  -0.8610000  53.6107193  12.4862686  -0.8081955
  54.1040000  14.5480000  -0.9210000  53.9942262  15.1458455  -0.0162184
  55.5570000  14.0970000  -1.0340000  55.6946351  13.7672798  -2.0637769
  56.1660551  14.9824698  -0.8520793  55.9790000  12.9930000  -0.0910000
  55.6610808  13.2279328   0.9247927  55.4901479  12.0764884  -0.4213473
  57.4850000  12.8010000  -0.1180000  58.0700000  12.9500000  -1.2150000
  58.0830000  12.5340000   0.9520000  53.7240000  15.3820000  -2.1410000
  52.8010000  15.0290000  -2.8910000  54.4430000  16.4840000  -2.3510000
  55.0885496  16.7580284  -1.6241757  54.2880000  17.3650000  -3.5100000
  54.9513263  18.2239816  -3.4087672  54.6400000  16.6220000  -4.8130000
  55.1337197  15.6821982  -4.5657903  53.7137399  16.4151836  -5.3490683
  55.5740000  17.4440000  -5.7370000  55.4260000  18.6680000  -5.8660000
  56.5420000  16.7670000  -6.3690000  57.1777726  17.2558782  -6.9829146
  56.6315916  15.7708167  -6.2286687  52.8930000  17.9840000  -3.6030000
  52.6320000  18.7770000  -4.5120000  51.9990000  17.6590000  -2.6710000
  52.2098993  16.9084707  -2.0288734  50.6870000  18.2960000  -2.5850000
  50.5990582  19.0548474  -3.3625063  49.5690000  17.2760000  -2.7710000
  49.7760166  16.3409877  -2.2504279  48.6407159  17.7040716  -2.3926570
  49.3240000  16.9220000  -4.2080000  49.2250000  17.9220000  -5.1660000
  49.3129910  18.9625854  -4.8536867  49.0180000  17.6150000  -6.4990000
  48.9340519  18.4093341  -7.2406784  48.9180000  16.2970000  -6.8870000
  48.7532494  16.0488112  -7.9355034  49.0270000  15.2850000  -5.9430000
  48.9470747  14.2421994  -6.2500487  49.2370000  15.6000000  -4.6130000
  49.3355015  14.8051648  -3.8736527  50.5860000  19.0150000  -1.2470000
  50.3750000  18.3870000  -0.2050000  50.7490000  20.3340000  -1.2880000
  51.0604047  20.7460967  -2.1559302  50.5260000  21.2160000  -0.1420000
  50.7944690  20.7024557   0.7811987  51.3860000  22.4710000  -0.2700000
  52.3699299  22.1390371  -0.6013334  50.9280122  23.0815491  -1.0481883
  51.5300000  23.2920000   0.9970000  51.6736799  24.3419508   0.7419309
  50.6209607  23.1834597   1.5885815  52.7200000  22.8260000   1.8390000
  52.5680000  22.4580000   3.0090000  53.9140000  22.8280000   1.2350000
  54.7342387  22.5300925   1.7434889  53.9895565  23.1274060   0.2733615
  49.0440000  21.5880000  -0.0880000  48.5850000  22.4510000  -0.8400000
  48.2750000  20.9450000   0.7910000  48.5868853  20.1212211   1.2851814
  46.9150000  21.4100000   1.0150000  46.3127532  21.2355488   0.1233920
  46.2770000  20.6550000   2.1950000  47.0416295  20.5780933   2.9679982
  45.4564943  21.2747255   2.5566777  45.7460000  19.2460000   1.8550000
  44.9125727  19.3620838   1.1621621  46.5500599  18.6956977   1.3663723
  45.2740000  18.4680000   3.1010000  45.2784958  19.1559457   3.9464641
  44.2553911  18.1267945   2.9163000  46.1790000  17.2460000   3.4230000
  47.1977318  17.6260817   3.4993154  45.8583030  16.8700084   4.3945364
  46.1340000  16.1180000   2.4030000  46.4315411  16.4660904   1.5027767
  46.7503994  15.3737601   2.6966986  45.1901884  15.7653802   2.3324451
  46.9670000  22.9120000   1.2700000  47.8600000  23.4060000   1.9610000
  46.0520000  23.6610000   0.6610000  45.3598632  23.2290337   0.0656420
  46.0700000  25.1130000   0.7570000  46.8504871  25.4520485   1.4381646
  46.3090000  25.7510000  -0.6200000  45.8503990  25.1300158  -1.3895213
  45.7000000  27.1290000  -0.6580000  46.1584590  27.7507457   0.1109919
  45.8727353  27.5762725  -1.6368822  44.6277077  27.0580610  -0.4756309
  47.8040000  25.8040000  -0.8810000  48.2119682  24.7933323  -0.8663412
  47.9873394  26.2551601  -1.8561620  48.2873264  26.4016033  -0.1081050
  44.8000000  25.6700000   1.3840000  44.8600000  26.5970000   2.1870000
  43.6400000  25.1370000   1.0250000  43.5248258  24.5539830   0.2083450
  42.4580000  25.4710000   1.8070000  42.6744432  25.3257053   2.8653671
  42.0330000  26.9190000   1.5910000  41.4156836  27.2048255   2.4426592
  42.9398582  27.5236563   1.5810484  41.2750000  27.1430000   0.3330000
  42.0011992  27.3012316  -0.4643069  40.6923814  26.2466299   0.1204550
  40.3440000  28.3450000   0.4170000  39.6620000  28.5160000   1.4600000
  40.2890000  29.1170000  -0.5710000  41.3380000  24.5050000   1.4470000
  41.2970000  23.9630000   0.3390000  40.4480000  24.2720000   2.4040000
  40.5356752  24.6999753   3.3146314  39.3470000  23.3500000   2.1790000
  39.6746879  22.5365993   1.5316213  38.8650000  22.7600000   3.4940000
  39.6117849  22.0440360   3.8372303  38.7803015  23.5708526   4.2174945
  37.5390000  22.0720000   3.3570000  36.7901374  22.8132107   3.0778720
  37.6167698  21.3209811   2.5708546  37.1310000  21.4070000   4.6490000
  37.9215266  20.7197962   4.9505255  37.0083415  22.1760130   5.4116751
  35.8250000  20.6390000   4.4880000  35.0535518  21.3373269   4.1634885
  35.9676459  19.8750920   3.7236729  35.4070000  19.9960000   5.7570000
  35.2743501  20.7037233   6.4652594  34.5404248  19.4977517   5.6124455
  36.1215129  19.3485589   6.0576498  38.2070000  24.0630000   1.4680000
  37.7650000  25.1260000   1.9080000  37.7260000  23.4760000   0.3700000
  38.0879305  22.5733714   0.0972964  36.7660000  24.1300000  -0.5100000
  36.4357111  25.0545726  -0.0365299  37.3950000  24.4510000  -1.8800000
  36.6892954  25.0457662  -2.4599437  38.6820000  25.2200000  -1.7130000
  39.3884194  24.6256409  -1.1335093  39.1072371  25.4349683  -2.6933381
  38.4816088  26.1558331  -1.1913114  37.7040000  23.1760000  -2.6370000
  38.1707108  22.4804013  -1.9395588  36.7591321  22.7599890  -2.9866555
  38.6220000  23.3990000  -3.8150000  39.5673138  23.8145951  -3.4660552
  38.8065500  22.4494241  -4.3173406  38.1557356  24.0941851  -4.5131512
  35.4850000  23.3230000  -0.6900000  34.6900000  23.6370000  -1.5730000
  35.2700000  22.2870000   0.1100000  35.9435567  22.0305655   0.8175748
  34.0610000  21.4930000  -0.0090000  33.2297811  22.0622871   0.4070367
  33.8755503  21.2996985  -1.0655710  34.1680000  20.1720000   0.7220000
  35.2370000  19.7080000   1.1080000  33.0140000  19.5450000   0.9380000
  32.1295816  20.0280235   0.8702377  33.0110000  18.1600000   1.3820000
  33.7487222  17.5987393   0.8085441  33.3560000  18.0390000   2.8820000
  33.8282808  17.0619061   2.9836745  34.0945381  18.8196754   3.0642291
  32.2240000  18.1640000   3.8960000  31.7577743  19.1401779   3.7625418
  31.4940599  17.3817750   3.6876476  32.7240000  18.0270000   5.3520000
  32.8600000  19.0560000   6.0590000  32.9820000  16.8850000   5.7870000
  31.6620000  17.5360000   1.0480000  30.6180000  18.1890000   1.1370000
  31.7130000  16.2900000   0.5990000  32.6111099  15.8518131   0.4524047
  30.5230000  15.5260000   0.3080000  29.6417618  16.1169827   0.5575154
  30.5029158  15.2745973  -0.7524210  30.5040000  14.2470000   1.1180000
  31.3360000  14.0520000   2.0150000  29.5600000  13.3560000   0.8080000
  28.8874132  13.5266971   0.0741139  29.4370000  12.1290000   1.5870000
  29.3521314  12.3520711   2.6505487  28.2040000  11.3440000   1.1540000
  28.0732019  11.4501292   0.0770930  28.3700000   9.8590000   1.5050000
  28.5003920   9.7520280   2.5818726  27.4827467   9.3094242   1.1906003
  29.2449134   9.4594985   0.9921398  27.0330000  11.8750000   1.8060000
  26.2597844  11.3774187   1.5300455  30.6810000  11.2580000   1.4770000
  31.0570000  10.6010000   2.4540000  31.3440000  11.2440000   0.3170000
  31.0016088  11.7693792  -0.4747350  32.5120000  10.3910000   0.1280000
  32.6023614   9.6953414   0.9622620  32.3780000   9.5880000  -1.1650000
  32.3295121  10.2679566  -2.0155334  33.2609919   8.9554408  -1.2560718
  31.1410000   8.7240000  -1.1410000  31.0410000   7.6490000  -0.2480000
  31.8742021   7.4413407   0.4233802  29.8870000   6.8420000  -0.2090000
  29.8211403   6.0060319   0.4873632  28.8170000   7.1230000  -1.0700000
  27.6740000   6.3300000  -1.0340000  27.7276159   5.6238883  -0.3858247
  28.9010000   8.1960000  -1.9670000  28.0755438   8.4157260  -2.6440842
  30.0590000   8.9910000  -1.9900000  30.1277110   9.8340814  -2.6774538
  33.8270000  11.1700000   0.1580000  34.7900000  10.7940000  -0.5170000
  33.8990000  12.2450000   0.9410000  33.0866216  12.6368524   1.3955243
  35.1800000  12.8830000   1.1560000  35.5268894  12.5293600   2.1269303
  35.8359602  12.4993205   0.3745874  35.2250000  14.3960000   1.1380000
  34.2600000  15.0810000   0.7930000  36.3880000  14.9000000   1.5100000
  37.0935677  14.2271929   1.7738259  36.7110000  16.3110000   1.6110000
  35.8351111  16.9586449   1.6493914  37.5460000  16.5380000   2.8820000
  38.3954128  15.8549438   2.8764039  38.0470000  17.9650000   2.9350000
  37.1980879  18.6486755   2.9410923  38.6363813  18.1103127   3.8403256
  38.6679000  18.1653019   2.0618082  36.7260000  16.1840000   4.1100000
  36.4275839  15.1368957   4.0587903  37.3241743  16.3473646   5.0064369
  35.8367753  16.8132630   4.1475282  37.4630000  16.7660000   0.3640000
  38.2180000  16.0060000  -0.2540000  37.2890000  18.0320000   0.0040000
  36.6648692  18.6269069   0.5299714  37.9310000  18.5810000  -1.1770000
  38.6561915  17.8911009  -1.6085503  36.8960000  18.9360000  -2.2480000
  36.2939007  19.7775101  -1.9053100  37.6050000  19.3130000  -3.5380000
  38.2069795  18.4717657  -3.8815788  36.8663537  19.5652778  -4.2988272
  38.2509851  20.1727783  -3.3602749  35.9610000  17.7710000  -2.4320000
  35.4559653  17.5574735  -1.4899552  35.2203757  18.0155956  -3.1934121
  36.5285626  16.8950256  -2.7460741  38.7560000  19.8050000  -0.7920000
  38.2410000  20.7340000  -0.1610000  40.0300000  19.8200000  -1.2050000
  40.3649797  19.0421239  -1.7552696  40.9590000  20.9020000  -0.9000000
  40.4299667  21.6688571  -0.3341793  42.1660000  20.4290000  -0.0760000
  42.6708193  19.7148591  -0.7265840  42.8103157  21.2937597   0.0825812
  41.8640000  19.7710000   1.2600000  41.5060000  20.5290000   2.3830000
  41.4381085  21.6126796   2.2874552  41.2390000  19.9200000   3.6060000
  40.9364134  20.5126791   4.4692929  41.3540000  18.5350000   3.7170000
  41.1120000  17.9020000   4.9140000  40.8685045  18.5089567   5.6167895
  41.7220000  17.7670000   2.6290000  41.8110136  16.6845283   2.7208263
  41.9800000  18.3860000   1.4080000  42.2783109  17.7886785   0.5464214
  41.4900000  21.5090000  -2.1860000  41.7200000  20.7990000  -3.1690000
  41.6680000  22.8240000  -2.1810000  41.1506088  23.4233999  -1.5540028
  42.6130000  23.4370000  -3.0950000  42.4514933  23.0570245  -4.1037782
  42.4340000  24.9450000  -3.1100000  41.3978499  25.1382577  -3.3877474
  42.6081530  25.2948057  -2.0924506  43.3500000  25.6740000  -4.0540000
  44.3857908  25.4823869  -3.7737810  43.1778971  25.3207168  -5.0706974
  43.0730000  27.1740000  -3.9830000  42.0407282  27.3438824  -4.2890291
  43.2025201  27.4950192  -2.9494282  44.0100000  27.9750000  -4.8860000
  44.9922459  27.5067618  -4.8223880  43.6292755  27.8827376  -5.9031704
  44.1240000  29.4260000  -4.5250000  44.4771792  29.5117189  -3.5826537
  44.7575897  29.8833462  -5.1649207  43.2140086  29.8601644  -4.5842959
  44.0030000  23.0730000  -2.6180000  44.3090000  23.2270000  -1.4370000
  44.8280000  22.5360000  -3.5060000  44.5216735  22.3750078  -4.4548651
  46.1670000  22.1120000  -3.1330000  46.4480980  22.5921284  -2.1956848
  46.2530000  20.5920000  -2.9500000  45.9831203  20.0973405  -3.8830471
  47.2706618  20.3157465  -2.6740495  45.5664371  20.2808940  -2.1626350
  47.1490000  22.5780000  -4.1920000  46.7740000  22.8800000  -5.3270000
  48.4180000  22.6280000  -3.8010000  48.6437198  22.2494805  -2.8922245
  49.4910000  23.2110000  -4.5910000  49.1011687  23.5464448  -5.5520450
  50.0990000  24.4080000  -3.8670000  49.2784719  25.1051448  -3.6972297
  50.4577299  24.0298306  -2.9097118  51.2140000  25.1130000  -4.5740000
  51.9807290  24.3954185  -4.8660690  50.8310591  25.6162866  -5.4617843
  51.8160000  26.1410000  -3.6290000  51.0504627  26.8779744  -3.3862649
  52.1307217  25.6313648  -2.7183290  52.9670000  26.8330000  -4.1990000
  52.8563819  27.8118521  -4.4219607  54.1480000  26.2570000  -4.4300000
  54.3310000  24.9690000  -4.1590000  53.5718286  24.4238078  -3.7762151
  55.2284186  24.5411736  -4.3370561  55.1470000  26.9650000  -4.9440000
  55.0105596  27.9421442  -5.1600401  56.0386501  26.5230806  -5.1165285
  50.5530000  22.1570000  -4.8330000  50.9290000  21.4200000  -3.9170000
  51.0080000  22.0660000  -6.0770000  50.5492195  22.5598058  -6.8291806
  52.1500000  21.2200000  -6.4010000  52.0463074  20.2535617  -5.9077010
  52.2330000  20.9920000  -7.9080000  51.2255576  20.8340030  -8.2929622
  52.6651428  21.8770841  -8.3748820  53.0820000  19.7920000  -8.2680000
  54.3080000  19.8170000  -8.1320000  52.4320000  18.7300000  -8.7340000
  52.9462968  17.8995575  -8.9908345  51.4268860  18.7585233  -8.8290421
  53.4150000  21.8900000  -5.8770000  53.7090000  23.0390000  -6.2320000
  54.1370000  21.1950000  -4.9930000  53.8692459  20.2652557  -4.7032024
  55.2870000  21.8160000  -4.3470000  55.0092256  22.7919744  -3.9489868
  55.7800000  20.9360000  -3.1890000  55.5622707  19.9012605  -3.4535889
  56.8589406  21.0724015  -3.1156384  55.1240000  21.2690000  -1.8260000
  55.4352308  22.2758289  -1.5475548  54.0432942  21.2491827  -1.9666570
  55.5120000  20.2890000  -0.7140000  56.5804117  20.0872071  -0.7906487
  55.2992563  20.7573613   0.2469772  54.7390000  18.9800000  -0.8230000
  53.6996712  19.2069331  -0.5855184  54.8116163  18.6565387  -1.8613636
  55.2290000  17.8860000   0.0760000  55.1613928  18.1853630   1.0382426
  54.6639599  17.0599839  -0.0601144  56.1919192  17.6752715  -0.1441800
  56.3880000  22.0970000  -5.3620000  57.0070000  23.1690000  -5.3350000
  56.6080000  21.1640000  -6.2940000  56.1417075  20.2727185  -6.2029620
  57.5310000  21.3520000  -7.4110000  58.4608557  21.7945979  -7.0538240
  57.8510000  20.0030000  -8.0690000  58.3053099  19.4452514  -7.2500872
  56.9517826  19.4865341  -8.4048141  58.8480000  20.1050000  -9.2340000
  58.4287172  20.7730289  -9.9863564  60.2200000  20.6480000  -8.7700000
  60.6401484  19.9802042  -8.0179210  60.8961632  20.7049211  -9.6230323
  60.0918976  21.6420661  -8.3416044  58.9950000  18.7670000  -9.9980000
  58.0279308  18.4726840 -10.4057435  59.7098166  18.8892937 -10.8117461
  59.3509233  17.9954016  -9.3153189  56.9840000  22.3160000  -8.4660000
  57.5020000  23.4330000  -8.6280000  55.9230000  21.8870000  -9.1790000
  55.4500065  21.0391352  -8.9006085  55.4820000  22.5570000 -10.3990000
  56.3251908  22.9358016 -10.9766139  54.6760000  21.5870000 -11.2830000
  54.7246312  21.9341861 -12.3150839  55.2390000  20.1560000 -11.1960000
  55.1902669  19.8079336 -10.1642178  54.6497091  19.4939587 -11.8304578
  56.2760209  20.1519662 -11.5316664  53.2910000  21.5850000 -10.9050000
  52.8068784  20.9753597 -11.4667520  54.6740000  23.8220000 -10.1350000
  54.5410000  24.6440000 -11.0440000  54.1580000  24.0170000  -8.9190000
  54.2894772  23.3197658  -8.2001971  53.4030000  25.2140000  -8.5880000
  53.3427694  25.2590311  -7.5005977  53.9798102  26.0629885  -8.9548894
  52.0020000  25.2840000  -9.1630000  51.2550000  26.2160000  -8.8260000
  51.6200000  24.3460000 -10.0260000  52.2848976  23.6986012 -10.4246041
  50.2340000  24.2560000 -10.4480000  49.9293907  25.1882425 -10.9236430
  50.0590000  23.1160000 -11.4510000  49.9129616  22.1986432 -10.8807119
  49.1622267  23.3279031 -12.0332326  51.2510000  22.9450000 -12.3950000
  51.2499643  23.8015682 -13.0690850  52.1682366  22.9478380 -11.8061298
  51.1740000  21.6580000 -13.2090000  50.6460000  21.7210000 -14.3430000
  51.6180000  20.5900000 -12.7110000  49.3540000  24.0370000  -9.2270000
  49.8000000  23.5200000  -8.2010000  48.1070000  24.4700000  -9.3220000
  47.8262920  25.0127655 -10.1261816  47.1350000  24.2540000  -8.2630000
  47.6074216  23.7740908  -7.4059095  46.5080000  25.5800000  -7.8000000
  45.7508667  25.3781650  -7.0422989  47.5850000  26.4750000  -7.2130000
  48.3423071  26.6776682  -7.9703061  47.1390327  27.4141050  -6.8854401
  48.0479017  25.9766275  -6.3612674  45.8340000  26.2760000  -8.9590000
  45.0504583  25.6347384  -9.3626682  45.3951107  27.2127342  -8.6154816
  46.5694095  26.4834441  -9.7363292  46.0860000  23.2740000  -8.7710000
  45.7060000  23.3120000  -9.9480000  45.6560000  22.3640000  -7.8950000
  46.0184468  22.4022400  -6.9530502  44.7010000  21.3160000  -8.2250000
  44.2528399  21.4869229  -9.2037937  45.3280000  19.9050000  -8.2090000
  44.5293058  19.1743731  -8.3369498  46.3550000  19.7300000  -9.3130000
  47.1543026  20.4600314  -9.1854444  46.7716843  18.7238778  -9.2661717
  45.8775243  19.8802508 -10.2812682  45.9450000  19.6420000  -6.8590000
  45.1761590  19.7054735  -6.0889631  46.3872339  18.6457937  -6.8489106
  46.7183835  20.3842947  -6.6615730  43.5860000  21.3750000  -7.2000000
  43.7300000  21.9820000  -6.1390000  42.4700000  20.7190000  -7.5160000
  42.2899450  20.4761443  -8.4796912  41.4660000  20.3700000  -6.5150000
  41.6175487  20.9584819  -5.6101126  40.0500000  20.6150000  -7.0240000
  39.8800735  20.0253701  -7.9248672  39.3321709  20.3220189  -6.2578513
  39.9239051  21.6730293  -7.2537244  41.6510000  18.9060000  -6.1420000
  41.5980000  18.0240000  -7.0070000  41.8670000  18.6500000  -4.8630000
  41.8280223  19.4181705  -4.2084053  42.1930000  17.3250000  -4.3540000
  42.4160270  16.6443893  -5.1756612  43.4230000  17.4250000  -3.4560000
  44.0700553  18.0703855  -4.0500507  43.0438773  17.9813720  -2.5987858
  44.2160000  16.2230000  -2.9690000  43.6162509  15.6806936  -2.2380379
  44.5600000  15.3140000  -4.1030000  45.1601791  15.8555070  -4.8342004
  45.1271014  14.4622684  -3.7274338  43.6441353  14.9598710  -4.5761648
  45.4780000  16.7430000  -2.3090000  45.2114799  17.3868456  -1.4708298
  46.0717871  15.9035804  -1.9472089  46.0593213  17.3129534  -3.0337880
  40.9830000  16.7920000  -3.5930000  40.5640000  17.3950000  -2.5990000
  40.3990000  15.6900000  -4.0690000  40.6866108  15.3253336  -4.9658823
  39.3080000  15.0190000  -3.3660000  38.8894328  15.6802750  -2.6073063
  38.2010000  14.6460000  -4.3540000  37.9542105  15.5697261  -4.8773778
  38.6577378  13.9444017  -5.0520332  36.9260000  14.0320000  -3.7760000
  37.1457731  13.0213139  -3.4320317  36.5934846  14.6378467  -2.9330971
  35.7900000  13.9800000  -4.8650000  35.0327039  14.7102139  -4.5797121
  36.2368966  14.2730507  -5.8150022  35.1260000  12.5720000  -5.0140000
  35.9467912  11.8549069  -5.0005899  34.5127973  12.4382766  -4.1228212
  34.2730000  12.3440000  -6.2560000  34.8411231  12.4674411  -7.0818924
  33.9004188  11.4053554  -6.2408483  33.5121313  13.0080965  -6.2683977
  39.8670000  13.7920000  -2.6470000  40.4960000  12.9330000  -3.2720000
  39.6620000  13.7220000  -1.3330000  39.1350820  14.4617374  -0.8911343
  40.2030000  12.6560000  -0.4890000  40.9000409  12.0470886  -1.0647257
  40.9480000  13.2490000   0.7140000  41.8335776  13.7426857   0.3138425
  40.2829267  13.9944079   1.1500557  41.3650000  12.2500000   1.7880000
  40.5121569  11.6134231   2.0236467  42.1784294  11.6374889   1.3990722
  41.8310000  12.9710000   3.0590000  42.5706186  13.7218431   2.7809749
  40.9708869  13.4606534   3.5156666  42.4540000  11.9850000   4.0650000
  41.6726910  11.2861662   4.3638114  43.2449375  11.4443478   3.5451805
  43.0240000  12.6540000   5.2890000  42.2911712  13.1546820   5.7710573
  43.4145664  11.9544184   5.9039337  43.7482920  13.3012831   5.0123687
  39.0710000  11.7380000  -0.0250000  38.0900000  12.2090000   0.5600000
  39.2130000  10.4370000  -0.2800000  40.0535821  10.1443428  -0.7573603
  38.2220000   9.4200000   0.0640000  37.3599330   9.8511632   0.5729577
  37.7530000   8.6620000  -1.1800000  38.6131741   8.1883599  -1.6531448
  36.7380000   7.6020000  -0.8010000  35.8772702   8.0749579  -0.3281832
  36.4141204   7.0716571  -1.6965105  37.1916615   6.8960326  -0.1053705
  37.1960000   9.6310000  -2.2100000  36.3465602  10.1472350  -1.7627257
  37.9755612  10.3544722  -2.4486876  36.7580000   8.9430000  -3.4580000
  35.9780645   8.2196512  -3.2201619  36.3681863   9.6787358  -4.1614467
  37.6070657   8.4268863  -3.9061227  38.8380000   8.4470000   1.0620000
  39.8130000   7.7530000   0.7390000  38.2750000   8.3770000   2.2650000
  37.5155561   8.9864682   2.5331282  38.8060000   7.4540000   3.2620000
  39.8889997   7.3865695   3.1587333  38.4800000   7.9330000   4.6720000
  37.3977267   7.9083833   4.7991917  38.9443370   7.2477762   5.3811964
  38.9870000   9.3420000   4.9240000  39.8416307   9.5006586   4.2663263
  38.1856596  10.0279993   4.6494814  39.4000000   9.5970000   6.3580000
  40.0389876   8.7759158   6.6829839  39.9622712  10.5301215   6.3931387
  38.2640000   9.6990000   7.2760000  38.2713625   9.0687742   8.0652152
  37.2410000  10.5550000   7.1510000  37.1680000  11.3890000   6.1070000
  37.8915212  11.3757367   5.4024142  36.3897180  12.0279055   6.0284099
  36.2750000  10.5730000   8.0760000  36.3218689   9.9417719   8.8630543
  35.5031192  11.2177357   7.9831850  38.2380000   6.0710000   2.9760000
  37.0240000   5.8630000   3.0490000  39.1080000   5.1360000   2.6050000
  40.0979558   5.3224156   2.5319519  38.6250000   3.8150000   2.2300000
  37.7506827   3.9048828   1.5853377  39.7090000   3.0630000   1.4760000
  40.6361775   3.1940852   2.0339049  39.5056095   1.9989829   1.3551700
  39.8450000   3.7090000   0.1120000  40.1296503   4.7517053   0.2528573
  40.8930000   3.0080000  -0.7420000  40.6087819   1.9652906  -0.8836902
  40.9607861   3.5006014  -1.7119740  41.8606279   3.0556379  -0.2424730
  38.4750000   3.7250000  -0.5640000  37.7747542   4.2953201   0.0463198
  38.5597912   4.1878476  -1.5472008  38.1116369   2.7032638  -0.6740969
  38.1770000   3.0260000   3.4480000  37.1620000   2.3190000   3.4010000
  38.9100000   3.1530000   4.5550000  39.7066045   3.7738884   4.5507273
  38.6430000   2.3770000   5.7640000  38.5524436   1.3197425   5.5147907
  39.7870000   2.5470000   6.7640000  39.4585526   2.1290585   7.7156021
  40.6479847   1.9866901   6.3995029  40.1780000   4.0110000   6.9590000
  41.0140000   4.2970000   7.8490000  39.6430000   4.8860000   6.2270000
  37.3140000   2.7870000   6.3890000  36.8940000   2.2060000   7.3930000
  36.6480000   3.7730000   5.7990000  37.1124793   4.2203577   5.0216781
  35.3440000   4.2760000   6.2060000  35.1133433   4.0534905   7.2478187
  35.3430000   5.7910000   6.0190000  35.7993064   6.0111798   5.0539064
  33.9570000   6.3750000   6.0630000  33.5001963   6.1556113   7.0280381
  34.0125990   7.4547979   5.9249986  33.3527316   5.9382508   5.2678834
  36.1540000   6.3770000   7.0390000  36.1619494   7.3310733   6.9327868
  34.1870000   3.6530000   5.4270000  33.0200000   3.9440000   5.7230000
  34.4750000   2.8080000   4.4460000  35.4327680   2.5128210   4.3209034
  33.4730000   2.3240000   3.5020000  32.4937290   2.7269245   3.7604168
  33.8260000   2.7700000   2.0800000  34.7647397   2.2826247   1.8166896
  33.0330128   2.4074054   1.4259385  33.9730000   4.2840000   1.9120000
  34.7312490   4.6282575   2.6153108  34.3077481   4.4792821   0.8932224
  32.6560000   5.0340000   2.1710000  31.5750000   4.4620000   1.8610000
  32.7080000   6.1860000   2.6800000  33.4030000   0.8070000   3.6150000
  34.3200000   0.1050000   3.1730000  32.3110000   0.2950000   4.1920000
  31.6121929   0.8799511   4.6274311  32.1600000  -1.1560000   4.2910000
  32.9967202  -1.5896156   4.8387006  30.8560000  -1.5030000   5.0300000
  30.7293753  -2.5856200   5.0306637  30.8970000  -0.9910000   6.4800000
  31.0231483   0.0916755   6.4801402  29.9647019  -1.2477091   6.9830108
  31.7322451  -1.4536561   7.0057523  29.7370000  -0.9130000   4.3630000
  28.9302093  -1.1363410   4.8329019  32.2240000  -1.8170000   2.9110000
  32.7800000  -2.9080000   2.7640000  31.7240000  -1.1370000   1.8780000
  31.3589452  -0.2114323   2.0516631  31.6200000  -1.6800000   0.5260000
  31.6269315  -2.7694716   0.5592095  30.3110000  -1.2180000  -0.1250000
  30.3639175  -0.1326712  -0.2107921  30.2777275  -1.6594872  -1.1210332
  29.0660000  -1.6020000   0.6370000  29.0623148  -1.0984173   1.6036911
  28.2113956  -1.2661306   0.0496821  28.9770000  -3.0870000   0.8460000
  29.0600000  -3.8240000  -0.1600000  28.8510000  -3.5180000   2.0150000
  32.8010000  -1.3040000  -0.3880000  32.6580000  -1.3530000  -1.6210000
  33.9550000  -0.9380000   0.1800000  34.0581516  -0.8526337   1.1810853
  35.1050000  -0.6510000  -0.6570000  35.9933945  -0.6446503  -0.0254827
  35.1931334  -1.4443706  -1.3992230  34.9970000   0.6870000  -1.3730000
  34.2530000   1.5810000  -0.9570000  35.7560000   0.8260000  -2.4590000
  36.3619375   0.0869403  -2.7856954  35.7540000   2.0980000  -3.1900000
  36.1201041   2.8994628  -2.5483425  36.6270000   2.0400000  -4.4470000
  36.2314094   1.2966824  -5.1391606  36.6160000   3.4000000  -5.1080000
  37.0119113   4.1438214  -4.4165631  37.2341986   3.3734260  -6.0053432
  35.5939474   3.6644660  -5.3792338  38.0400000   1.6390000  -4.1100000
  38.0371480   0.6541788  -3.6428586  38.6362485   1.6062990  -5.0218761
  38.4700933   2.3660621  -3.4211594  34.3190000   2.4400000  -3.5650000
  33.6260000   1.5990000  -4.1730000  33.8240000   3.6380000  -3.2310000
  34.5090000   4.6790000  -2.4470000  35.1160280   5.2982934  -3.1073733
  35.1482440   4.2143395  -1.6962959  33.3680000   5.4350000  -1.8370000
  33.6605816   6.4713452  -1.6682290  33.0883004   4.9777977  -0.8878764
  32.2490000   5.3370000  -2.8280000  32.3861911   6.0908240  -3.6032593
  31.2595821   5.4485729  -2.3844876  32.3960000   3.9400000  -3.4300000
  31.8133083   3.1944753  -2.8889255  32.0020000   3.9210000  -4.9030000
  32.7280000   4.4170000  -5.7670000  30.8130000   3.3740000  -5.1740000
  30.2284955   3.0074459  -4.4363742  30.3550000   3.2360000  -6.5530000
  31.0052773   2.5432515  -7.0871705  28.9240000   2.6980000  -6.6000000
  28.2497593   3.5399645  -6.7568262  28.8474212   2.0101344  -7.4420669
  28.5680000   2.0250000  -5.4080000  27.6659269   1.7042950  -5.4787978
  30.4370000   4.5590000  -7.3020000  30.9390000   4.6060000  -8.4280000
  29.9460000   5.6490000  -6.6980000  29.5129037   5.5967079  -5.7870706
  29.9970000   6.9500000  -7.3690000  29.4066321   6.9291671  -8.2850409
  29.4600000   8.0610000  -6.4670000  30.2952532   8.6703248  -6.1217817
  28.4780000   8.9320000  -7.2200000  27.6421800   8.3234175  -7.5651549
  28.1074361   9.7166369  -6.5603588  28.9760469   9.3842149  -8.0776430
  28.8180000   7.4970000  -5.3200000  28.4846659   8.2024366  -4.7606719
  31.4120000   7.3080000  -7.7890000  31.6170000   7.8940000  -8.8560000
  32.4040000   6.9920000  -6.9540000  32.2367410   6.5348283  -6.0690606
  33.7690000   7.3750000  -7.2860000  33.7687786   8.4121798  -7.6211974
  34.6650000   7.2600000  -6.0600000  34.6826384   6.2251924  -5.7180027
  35.6764017   7.5742261  -6.3177377  34.2781896   7.8981513  -5.2654940
  34.3120000   6.5310000  -8.4280000  35.0200000   7.0500000  -9.2970000
  33.9900000   5.2290000  -8.4450000  33.4792937   4.8106816  -7.6806126
  34.4320000   4.3640000  -9.5400000  35.5053893   4.4429895  -9.7123233
  34.0620000   2.8920000  -9.2720000  32.9764430   2.7957896  -9.2517516
  34.6380000   1.9840000 -10.3790000  35.7236294   2.0793256 -10.3995546
  34.3685769   0.9474684 -10.1762337  34.2291983   2.2829809 -11.3441895
  34.5270000   2.4340000  -7.8850000  35.6142239   2.5075323  -7.8597426
  34.0999989   3.1171548  -7.1507867  34.1070000   1.0070000  -7.5550000
  34.5340333   0.3231697  -8.2885656  34.4662748   0.7427546  -6.5604170
  33.0198076   0.9327917  -7.5796121  33.8350000   4.8390000 -10.8540000
  34.5460000   5.0330000 -11.8480000  32.5170000   5.0320000 -10.8810000
  31.9344887   4.8290747 -10.0812493  31.8730000   5.4850000 -12.1080000
  32.1066205   4.8042635 -12.9266077  30.3590000   5.5190000 -11.9190000
  30.0793405   4.5882297 -11.4254856  30.1397602   6.3591387 -11.2600608
  29.5640000   5.6670000 -13.2130000  29.8858380   6.5788387 -13.7160619
  29.7740397   4.8077617 -13.8499418  28.0600000   5.7410000 -12.9360000
  27.8468662   6.6507896 -12.3747907  27.5251467   5.7666684 -13.8854064
  27.5880000   4.5920000 -12.1630000  27.4758718   3.7201054 -12.6603193
  27.3030000   4.6230000 -10.8640000  27.4270000   5.7550000 -10.1770000
  27.7389663   6.5942204 -10.6444249  27.2086348   5.7702482  -9.1910062
  26.8920000   3.5210000 -10.2530000  26.7970130   2.6624890 -10.7764849
  26.6756809   3.5448211  -9.2667255  32.3940000   6.8540000 -12.5320000
  32.6580000   7.0880000 -13.7180000  32.5570000   7.7760000 -11.5790000
  32.3087837   7.5971627 -10.6164486  33.0250000   9.1140000 -11.9370000
  32.4251004   9.5056930 -12.7584598  32.9030000  10.0670000 -10.7440000
  31.8484738  10.1020470 -10.4704211  33.4756012   9.6292320  -9.9263282
  33.4060000  11.4850000 -11.0160000  34.4299984  11.4114333 -11.3822187
  32.7729992  11.9146616 -11.7924020  33.3710000  12.3870000  -9.7680000
  33.0070000  11.9040000  -8.6590000  33.7130000  13.5870000  -9.8940000
  34.4590000   9.0780000 -12.4640000  34.7660000   9.6850000 -13.4960000
  35.3580000   8.3680000 -11.7780000  35.1523745   7.9525260 -10.8806713
  36.7170000   8.2560000 -12.2970000  37.1689694   9.2431496 -12.3937395
  37.5910000   7.3790000 -11.3800000  37.1186464   6.4029548 -11.2690128
  38.9870000   7.2040000 -11.9750000  39.4601967   8.1796510 -12.0858627
  39.5892795   6.5817697 -11.3130411  38.9090611   6.7255314 -12.9512646
  37.7020000   7.9800000  -9.9740000  38.1587227   8.9641043 -10.0790904
  36.6880871   8.0897875  -9.5892575  38.5260000   7.1380000  -9.0030000
  39.5402390   7.0281565  -9.3868664  38.5572993   7.6299906  -8.0308556
  38.0696042   6.1538383  -8.8970354  36.6850000   7.7160000 -13.7210000
  37.2640000   8.3030000 -14.6430000  35.9840000   6.5980000 -13.9290000
  35.4220307   6.1782872 -13.2022738  36.0730000   5.9150000 -15.2170000
  37.1167719   5.7202198 -15.4633739  35.3300000   4.5860000 -15.1600000
  35.6577796   4.0338731 -14.2791960  34.2598938   4.7806637 -15.0887351
  35.5930000   3.8230000 -16.3180000  35.1184609   2.9900482 -16.2669736
  35.5280000   6.7830000 -16.3380000  36.1070000   6.8410000 -17.4260000
  34.4160000   7.4660000 -16.0910000  33.9440274   7.3820474 -15.2020157
  33.8170000   8.3140000 -17.1140000  33.6298077   7.7421861 -18.0228934
  32.4930000   8.8530000 -16.5980000  31.7689995   8.0411795 -16.6677856
  32.6482911   9.1116057 -15.5505709  31.9690000  10.0610000 -17.3430000
  32.6152461  10.9199542 -17.1622670  31.9560000   9.7460000 -18.8060000
  31.3095525   8.8873787 -18.9875870  31.5806818  10.6063480 -19.3601105
  32.9682848   9.5145234 -19.1373585  30.5670000  10.3560000 -16.8610000
  30.5857731  10.5605966 -15.7905388  30.1758326  11.2252246 -17.3897135
  29.9269920   9.4952019 -17.0546886  34.7440000   9.4570000 -17.5060000
  34.9790000   9.7090000 -18.6920000  35.2940000  10.1580000 -16.5160000
  35.0971688   9.9513657 -15.5471558  36.1390000  11.3070000 -16.8200000
  35.6482823  11.9496546 -17.5509517  36.3930000  12.1190000 -15.5470000
  36.7874614  11.4234272 -14.8062720  37.1334952  12.8931063 -15.7483117
  35.1170000  12.7630000 -15.0110000  34.4039049  11.9780211 -14.7591980
  35.4130000  13.5870000 -13.7810000  36.1257216  14.3725289 -14.0321398
  34.4907226  14.0375898 -13.4142931  35.8365584  12.9466144 -13.0073043
  34.4780000  13.6350000 -16.0750000  34.2298744  13.0256795 -16.9440579
  33.5693232  14.0870883 -15.6774779  35.1749645  14.4197419 -16.3691422
  37.4530000  10.8900000 -17.4710000  38.0580000  11.6800000 -18.2050000
  37.9220000   9.6670000 -17.2180000  37.5203289   9.0694375 -16.5097072
  39.1120000   9.2010000 -17.9230000  39.9278855   9.9092649 -17.7788094
  39.5510000   7.8320000 -17.3880000  38.6549868   7.2373416 -17.2101212
  40.1595444   7.3510272 -18.1537930  40.3550000   7.9410000 -16.0930000
  40.7952566   8.9375121 -16.0578060  39.6620271   7.8208925 -15.2602547
  41.4400000   6.9120000 -15.9920000  40.9953767   5.9489130 -15.7412563
  41.9503644   6.8370128 -16.9522107  42.4440000   7.3050000 -14.9120000
  41.8940197   7.8014484 -14.1125244  42.8941387   6.3893859 -14.5284310
  43.5140000   8.2110000 -15.4150000  43.0971333   9.0596717 -15.7700750
  44.1463290   8.4366103 -14.6604405  44.0240195   7.7510053 -16.1555295
  38.9110000   9.1440000 -19.4300000  39.8990000   9.0990000 -20.1710000
  37.6770000   9.1760000 -19.8990000  36.8814554   9.1679405 -19.2767916
  37.4320000   9.1760000 -21.3280000  38.3787799   9.2161930 -21.8666014
  36.6900000   7.9050000 -21.7390000  35.7538840   7.8983592 -21.1806615
  36.4767944   8.0011388 -22.8036130  37.4410000   6.6020000 -21.4870000
  38.3331859   6.6163505 -22.1130186  37.7337448   6.5258175 -20.4398153
  36.5780000   5.4040000 -21.8610000  36.2530000   5.2490000 -23.0700000
  36.1950000   4.6430000 -20.9430000  36.6350000  10.3780000 -21.8100000
  36.7970000  10.7810000 -22.9640000  35.7730000  10.9470000 -20.9720000
  35.5937231  10.5168146 -20.0759533  35.0610000  12.1720000 -21.3040000
  34.6409210  12.0998522 -22.3072086  33.9250000  12.3980000 -20.3160000
  34.0907775  11.6226669 -19.5680189  34.0790367  13.3775787 -19.8634535
  32.5110000  12.3010000 -20.8360000  32.1826341  11.2616745 -20.8448973
  31.6230000  13.1000000 -19.9180000  31.9504842  14.1396013 -19.9089378
  30.5931197  13.0470938 -20.2710557  31.6820049  12.6922129 -18.9088774
  32.4590000  12.7930000 -22.2580000  33.1147990  12.1822844 -22.8785269
  31.4371160  12.7217450 -22.6305279  32.7873862  13.8316657 -22.2958816
  36.0210000  13.3560000 -21.2560000  36.3140000  13.8840000 -20.1790000
  36.5000000  13.8130000 -22.4040000  36.2386775  13.3721081 -23.2743012
  37.4540000  14.9100000 -22.4460000  37.5802267  15.3293563 -21.4478486
  38.8110000  14.4160000 -22.9430000  39.0101325  13.4674959 -22.4442160
  38.8011867  14.2633581 -24.0222146  39.9150000  15.3780000 -22.6040000
  40.5470000  15.2710000 -21.5450000  40.1290000  16.3670000 -23.4810000
  40.8579359  17.0438975 -23.3061802  39.5605012  16.4315590 -24.3133113
  36.9320000  16.0370000 -23.3310000  36.5850000  15.8130000 -24.4890000
  36.8720000  17.2410000 -22.7940000  37.1244099  17.4019870 -21.8293904
  36.3740000  18.3650000 -23.5740000  36.8544360  18.3866266 -24.5521680
  34.8570000  18.2240000 -23.7750000  34.6263574  17.3001628 -24.3054980
  34.3647816  18.2165122 -22.8024955  34.2330000  19.3400000 -24.5640000
  33.9690000  20.5830000 -24.0260000  33.4240000  21.3540000 -24.9510000
  33.1435557  22.3818136 -24.7206758  33.3210000  20.6570000 -26.0690000
  32.9469122  20.9901420 -26.9460260  33.8090000  19.3900000 -25.8500000
  33.7969949  18.6547293 -26.6545708  36.7330000  19.6660000 -22.8640000
  36.8960000  19.6660000 -21.6370000  36.9020000  20.7820000 -23.5890000
  37.0520000  20.8680000 -25.0510000  36.0689626  20.8432264 -25.5212383
  37.6460162  20.0264694 -25.4074688  37.7540000  22.1910000 -25.2440000
  37.4342824  22.6330868 -26.1876307  38.8312281  22.0262329 -25.2670814
  37.3760000  23.0360000 -24.0990000  36.4100494  23.5190510 -24.2463095
  38.1322208  23.7929442 -23.8909972  37.2910000  22.0450000 -22.9290000
  38.2667478  21.8730730 -22.4746262  36.3220000  22.5410000 -21.8720000
  36.7160000  23.3690000 -21.0380000  35.0630000  22.1060000 -21.8890000
  34.7537242  21.4834869 -22.6217518  34.0790000  22.5890000 -20.9340000
  34.5291607  23.3271720 -20.2702556  32.9220000  23.2440000 -21.6770000
  32.4898154  22.4940213 -22.3394557  32.1602976  23.5955121 -20.9810484
  33.3890000  24.4110000 -22.5100000  33.3510000  24.3550000 -23.7360000
  33.8760000  25.4650000 -21.8480000  34.2020423  26.2723389 -22.3598594
  33.9157482  25.4493338 -20.8389036  33.6050000  21.4850000 -20.0000000
  32.5100000  21.5630000 -19.4370000  34.4310000  20.4560000 -19.8230000
  35.2155420  20.3703149 -20.4532787  34.2450000  19.4270000 -18.8070000
  33.3908218  19.6750324 -18.1769533  34.0340000  18.0350000 -19.4330000
  34.8972841  17.7864440 -20.0503012  33.8720000  16.9840000 -18.3390000
  33.0085770  17.2316435 -17.7215261  33.7236000  16.0048081 -18.7942596
  34.7679181  16.9636055 -17.7185051  32.8020000  18.0570000 -20.3490000
  31.9566074  18.3781528 -19.7404994  32.9932224  18.7985775 -21.1246264
  32.4860000  16.7390000 -20.9860000  32.2941910  15.9969728 -20.2109485
  31.6026794  16.8419712 -21.6162705  33.3308075  16.4173964 -21.5950741
  35.4720000  19.4350000 -17.9030000  36.6050000  19.4110000 -18.3920000
  35.2450000  19.4720000 -16.5860000  34.3004495  19.5115747 -16.2305319
  36.3470000  19.5120000 -15.6290000  37.0140140  20.3530643 -15.8182152
  35.8000000  19.6320000 -14.2020000  35.1198096  20.4816267 -14.1422112
  35.0400000  18.3370000 -13.8340000  35.7197021  17.4869347 -13.8931184
  34.6499687  18.4198085 -12.8195451  34.2137236  18.1899093 -14.5295094
  36.9200000  19.8830000 -13.2490000  37.4266226  20.8096098 -13.5188700
  36.5244872  19.9672535 -12.2367892  37.6283720  19.0557878 -13.2940545
  37.2090000  18.2660000 -15.7790000  36.6950000  17.1420000 -15.8680000
  38.5280000  18.4580000 -15.7760000  38.8875968  19.3913847 -15.6360626
  39.4810000  17.3780000 -16.0200000  39.0443716  16.6428943 -16.6960728
  40.7570000  17.9320000 -16.6580000  40.9382180  18.9123190 -16.2172802
  41.5703257  17.2576903 -16.3898439  40.6860000  18.0610000 -18.1550000
  40.5196122  17.0680400 -18.5726678  39.8403556  18.7038144 -18.3994939
  41.9440000  18.6450000 -18.7370000  42.3388374  19.4033702 -18.0609253
  42.6838808  17.8554317 -18.8683687  41.6330000  19.2830000 -20.0930000
  41.2197907  20.2737558 -19.9038927  42.5736885  19.3796399 -20.6350932
  40.6590000  18.4820000 -20.9170000  39.7871235  18.3927005 -20.4150471
  40.4949903  18.9522295 -21.7956837  41.0418841  17.5640531 -21.0927052
  39.8430000  16.6120000 -14.7480000  40.0850000  17.2030000 -13.6910000
  39.8740000  15.2850000 -14.8700000  39.4363382  14.8675495 -15.6788798
  40.4880000  14.4020000 -13.8820000  40.4077340  14.8495318 -12.8913579
  39.7940000  13.0440000 -13.8610000  38.7725065  13.2741302 -13.5581958
  39.7913953  12.6524889 -14.8782573  40.3800000  12.0020000 -12.9180000
  41.4400814  11.8754393 -13.1377968  40.2120000  12.4510000 -11.4750000
  39.1520789  12.5773348 -11.2543067  40.6342690  11.6990070 -10.8084445
  40.7290505  13.3989811 -11.3263692  39.7050000  10.6640000 -13.1600000
  39.8708968  10.3541120 -14.1917689  40.1241543   9.9176780 -12.4851561
  38.6345870  10.7581154 -12.9770868  41.9590000  14.2400000 -14.2410000
  42.2830000  13.6780000 -15.2920000  42.8480000  14.7240000 -13.3660000
  42.5171305  15.1345074 -12.5045429  44.2850000  14.7320000 -13.6300000
  44.4663885  14.7579003 -14.7044890  44.9300000  15.9670000 -12.9950000
  44.8221695  15.8334578 -11.9185994  45.9886954  15.9988871 -13.2523854
  44.2670000  17.2720000 -13.4130000  43.1926410  17.1821342 -13.2524459
  44.7980000  18.4370000 -12.6170000  45.8723002  18.5277927 -12.7774198
  44.3042081  19.3535250 -12.9398813  44.6019579  18.2731893 -11.5573614
  44.4890000  17.4860000 -14.8800000  44.0529918  16.6577718 -15.4386004
  44.0168411  18.4191898 -15.1871222  45.5588183  17.5368637 -15.0824861
  45.0090000  13.4850000 -13.1300000  46.0180000  13.1000000 -13.7320000
  44.5370000  12.8470000 -12.0530000  43.6809558  13.1542758 -11.6138313
  45.2580000  11.7230000 -11.4560000  45.4935599  10.9910279 -12.2285462
  46.5740000  12.1900000 -10.8020000  46.8948527  13.0913387 -11.3242465
  46.3522213  12.4323804  -9.7626897  47.6990000  11.1380000 -10.8550000
  47.4780000   9.9870000 -11.2980000  48.8280000  11.4850000 -10.4400000
  44.3650000  11.0480000 -10.4240000  43.4290000  11.6540000  -9.8960000
  44.6830000   9.7860000 -10.1350000  45.3897101   9.3402128 -10.7023922
  44.0500000   9.0050000  -9.0800000  43.5481998   9.6559739  -8.3640889
  43.0270000   8.0020000  -9.6320000  43.5285062   7.3238827 -10.3224692
  42.4120000   7.2060000  -8.5010000  41.9098795   7.8834423  -7.8103134
  41.6883566   6.4983647  -8.9055898  43.1942524   6.6621498  -7.9714627
  41.9540000   8.7110000 -10.4180000  42.4075339   9.2456185 -11.2526210
  41.2401387   7.9810413 -10.7996568  41.4372619   9.4198019  -9.7709432
  45.1610000   8.2820000  -8.3270000  45.9000000   7.4850000  -8.9190000
  45.2810000   8.5660000  -7.0320000  44.5759932   9.1574084  -6.6157058
  46.3880000   8.1150000  -6.1950000  47.0406030   7.4111672  -6.7115539
  47.2200000   9.3030000  -5.6810000  46.5688056   9.9705657  -5.1167284
  48.3510000   8.8230000  -4.7860000  49.0029250   8.1557043  -5.3497471
  48.9255499   9.6799860  -4.4344775  47.9366937   8.2886218  -3.9310793
  47.7320000  10.1500000  -6.8570000  48.4565892   9.5385940  -7.3948234
  46.8749368  10.3474622  -7.5008562  48.3870000  11.4840000  -6.4510000
  49.2444816  11.2873121  -5.8074636  48.7177739  12.0136841  -7.3443771
  47.6628292  12.0961797  -5.9134941  45.8270000   7.3040000  -5.0260000
  44.9730000   7.7900000  -4.2720000  46.3310000   6.0840000  -4.8590000
  46.9936988   5.7413625  -5.5398298  45.9390000   5.1990000  -3.7710000
  45.0483908   5.5851089  -3.2751831  45.6270000   3.8090000  -4.3220000
  44.8107291   3.8517745  -5.0430904  46.5175957   3.4075821  -4.8055318
  45.2250000   2.8210000  -3.2810000  45.5560000   1.4850000  -3.3560000
  45.0580000   0.8540000  -2.3080000  45.2152204  -0.2170386  -2.1804969
  44.4120000   1.7300000  -1.5600000  43.9277038   1.5320661  -0.6960676
  44.5020000   2.9690000  -2.1470000  44.0289240   3.8307775  -1.6762137
  47.0700000   5.1570000  -2.7450000  48.2180000   4.8600000  -3.0930000
  46.7510000   5.4790000  -1.4890000  45.7847976   5.6418776  -1.2440040
  47.7690000   5.6360000  -0.4450000  48.6040014   4.9654730  -0.6481387
  48.2950000   7.0590000  -0.3760000  47.4643068   7.7574803  -0.4768685
  48.9890000   7.2850000   0.9630000  49.8201523   6.5871429   1.0643950
  49.3654572   8.3068554   1.0098054  48.2781342   7.1227634   1.7732159
  49.2250000   7.2790000  -1.4470000  49.5570389   8.1786610  -1.4027216
  47.1510000   5.2460000   0.8890000  46.4590000   6.0610000   1.5060000
  47.4150000   4.0110000   1.3190000  47.7791287   3.3363012   0.6615114
  47.1350000   3.5680000   2.6820000  47.1693416   2.4796978   2.7321809
  48.1820000   4.1390000   3.6570000  48.9562743   4.6070438   3.0491073
  47.6769578   4.9008264   4.2508460  48.8340000   3.0840000   4.6090000
  48.8714712   2.1468180   4.0536742  49.8487235   3.4216497   4.8197795
  48.0760000   2.8640000   5.9420000  47.8500000   3.8490000   6.6920000
  47.7160000   1.6950000   6.2380000  45.7300000   3.9530000   3.1270000
  45.5380000   4.9570000   3.8260000  44.7420000   3.1660000   2.7230000
  44.9297673   2.4192825   2.0693520  43.3660000   3.4010000   3.1230000
  42.7103915   2.6873512   2.6240189  43.2090000   3.2340000   4.6370000
  44.0581394   3.7040974   5.1330544  42.2875653   3.7221032   4.9545112
  43.1520000   1.7640000   5.0540000  42.1270000   1.0880000   4.8600000
  44.2470000   1.2630000   5.6290000  44.2620912   0.2969894   5.9234411
  45.0556878   1.8521039   5.7671353  42.8650000   4.7670000   2.6730000
  41.8800000   5.2830000   3.2150000  43.5210000   5.3590000   1.6790000
  44.3749529   4.9485331   1.3291705  43.0730000   6.6140000   1.1010000
  42.0480857   6.8112743   1.4152177  43.9630000   7.7910000   1.5540000
  44.9936074   7.4494472   1.4576191  43.7815736   8.6008224   0.8473372
  43.7260000   8.2910000   2.9680000  43.2992945   9.2931015   2.9253875
  43.0290042   7.6209786   3.4713589  45.0440000   8.3310000   3.7430000
  45.3503486   7.3029997   3.9365585  45.7882291   8.8189787   3.1136358
  44.9240000   9.0860000   5.0700000  44.0163092   8.7626522   5.5795529
  45.7903217   8.8524318   5.6888956  44.8640000  10.5590000   4.8340000
  44.0610716  10.7756893   4.2608931  44.7851554  11.0388349   5.7192356
  45.7051852  10.8588948   4.3622271  43.0790000   6.5040000  -0.4210000
  43.9370000   5.8410000  -1.0130000  42.1220000   7.1800000  -1.0500000
  41.3838240   7.5923389  -0.4975761  42.0710000   7.3370000  -2.5020000
  42.9970735   6.9648540  -2.9401718  40.8960000   6.5560000  -3.1030000
  40.9991810   5.5810788  -2.6265741  39.9889701   7.0415778  -2.7429847
  40.8100000   6.3760000  -4.6150000  40.8102938   7.3570000  -5.0901207
  41.9980000   5.5650000  -5.1230000  41.9981142   4.5836327  -4.6486404
  41.9215566   5.4455778  -6.2037384  42.9243910   6.0854870  -4.8801143
  39.4900000   5.7050000  -4.9670000  38.6629610   6.3278540  -4.6261793
  39.4248116   5.5745888  -6.0472058  39.4355599   4.7313349  -4.4800590
  41.9310000   8.8190000  -2.7970000  40.9700000   9.4440000  -2.3560000
  42.8790000   9.3870000  -3.5220000  43.6383729   8.8226335  -3.8754723
  42.8900000  10.8150000  -3.8060000  42.1350863  11.3140253  -3.1983995
  44.2570000  11.4260000  -3.4870000  44.9604527  10.7262353  -3.9382017
  44.3192713  12.3851735  -4.0010121  44.6040000  11.6160000  -2.0110000
  44.1980000  12.7560000  -1.3140000  43.6034035  13.5040181  -1.8384267
  44.5420000  12.9510000   0.0420000  44.2069716  13.8474402   0.5637785
  45.3100000  11.9980000   0.7140000  45.6550000  12.1790000   2.0540000
  45.3122206  12.9965195   2.4224614  45.7300000  10.8600000   0.0310000
  46.3244273  10.1055902   0.5463859  45.3870000  10.6820000  -1.3280000
  45.7346934   9.8006542  -1.8669240  42.5440000  11.0220000  -5.2780000
  43.2260000  10.4920000  -6.1610000  41.4850000  11.7750000  -5.5480000
  40.8736703  12.0546426  -4.7942259  41.1510000  12.2010000  -6.9050000
  41.6247617  11.5262911  -7.6180336  39.6450000  12.1890000  -7.1490000
  39.2257684  12.6642252  -6.2621488  39.4508068  12.8132108  -8.0212098
  38.9990000  10.8270000  -7.3470000  39.3328068  10.4195896  -8.3013011
  39.3770000   9.8670000  -6.2250000  39.0430852  10.2735395  -5.2703664
  38.8994543   8.9021078  -6.3953932  40.4591543   9.7378796  -6.2057549
  37.5100000  10.9760000  -7.4150000  37.2469826  11.6240302  -8.2510491
  37.0524629   9.9969115  -7.5569395  37.1455481  11.4156324  -6.4865620
  41.6950000  13.6060000  -7.1090000  41.3420000  14.5240000  -6.3560000
  42.5550000  13.7750000  -8.1090000  42.8099736  12.9849622  -8.6842634
  43.1740000  15.0610000  -8.3900000  43.0245259  15.7543995  -7.5623806
  44.6770000  14.9180000  -8.6430000  44.8378431  14.4392591  -9.6089378
  45.3230000  16.2810000  -8.6440000  45.1629661  16.7602062  -7.6781576
  46.3928867  16.1764394  -8.8243052  44.8806412  16.8927296  -9.4302616
  45.3090000  14.0390000  -7.6020000  44.8509962  13.0504016  -7.6337452
  46.3771636  13.9505326  -7.8002415  45.1581580  14.4772310  -6.6154398
  42.4830000  15.6500000  -9.6050000  42.6210000  15.1190000 -10.7120000
  41.7580000  16.7550000  -9.4150000  41.6962642  17.1263570  -8.4777797
  41.0440000  17.4480000 -10.4820000  41.0524845  16.8312307 -11.3806784
  39.5950000  17.7270000 -10.0960000  39.5769117  18.2808070  -9.1573468
  39.0928235  18.3078164 -10.8696738  38.7730000  16.4980000  -9.8830000
  37.9660000  16.0100000 -10.8950000  37.9477242  16.5273677 -11.8542166
  37.1940000  14.8890000 -10.7040000  36.5643576  14.5119641 -11.5099126
  37.2180000  14.2440000  -9.4930000  36.6026455  13.3579884  -9.3367236
  38.0220000  14.7170000  -8.4710000  38.0499387  14.1998434  -7.5119021
  38.7880000  15.8440000  -8.6680000  39.4127456  16.2262991  -7.8607576
  41.7040000  18.7780000 -10.8120000  42.4470000  19.3410000 -10.0090000
  41.3980000  19.3020000 -11.9980000  40.8848932  18.8028041 -12.7104775
  41.8690000  20.6400000 -12.3000000  42.9248184  20.7117766 -12.0388586
  41.7070000  20.9870000 -13.7820000  42.3513426  21.8436618 -13.9796168
  42.0622552  20.1271440 -14.3499273  40.3050000  21.3120000 -14.1940000
  39.7676550  20.3645983 -14.1516790  39.8836366  22.0011058 -13.4620948
  40.1710000  21.9110000 -15.5930000  40.6260000  23.0570000 -15.8220000
  39.5690000  21.2380000 -16.4580000  41.0930000  21.6080000 -11.4300000
  39.9540000  21.3460000 -11.0440000  41.7370000  22.7070000 -11.0750000
  42.6676109  22.8854880 -11.4245779  41.1610000  23.6530000 -10.1400000
  40.3605809  23.1705131  -9.5790768  42.2120000  24.1560000  -9.1550000
  42.5337115  23.3406116  -8.5071244  43.0741305  24.5587544  -9.6866201
  41.7150000  25.2460000  -8.2570000  40.9220000  24.9570000  -7.1610000
  40.6545189  23.9210773  -6.9526304  40.4670000  25.9730000  -6.3290000
  39.8453981  25.7315537  -5.4667845  40.8010000  27.2860000  -6.5930000
  40.4538929  28.0867121  -5.9399482  41.5760000  27.5800000  -7.6870000
  41.8320481  28.6166781  -7.9057190  42.0320000  26.5660000  -8.5110000
  42.6513428  26.8035707  -9.3759131  40.5380000  24.8180000 -10.8950000
  41.1640000  25.4020000 -11.7830000  39.3010000  25.1360000 -10.5470000
  38.7797680  24.4855975  -9.9765677  38.6370000  26.3480000 -10.9900000
  39.3643609  26.9982560 -11.4760169  37.5160000  26.0470000 -11.9780000
  36.8565823  25.3560472 -11.4527840  36.9793196  26.9723073 -12.1874769
  37.9730000  25.4150000 -13.2920000  39.0608294  25.4449749 -13.3538829
  37.5070000  23.9840000 -13.3420000  36.4191645  23.9532385 -13.2806288
  37.8306233  23.5284446 -14.2778622  37.9334084  23.4329846 -12.5037528
  37.4330000  26.2110000 -14.4690000  37.8034907  27.2347584 -14.4165133
  37.7641807  25.7526294 -15.4008353  36.3435531  26.2172226 -14.4348580
  38.1200000  27.0480000  -9.7440000  37.5950000  26.3990000  -8.8310000
  38.2940000  28.3650000  -9.6960000  38.4901512  28.9135137 -10.5210799
  38.2980000  29.0340000  -8.4080000  38.7332077  28.3808959  -7.6515950
  39.1300000  30.3230000  -8.4810000  39.4695496  30.6160812  -7.4875672
  39.9933971  30.1585876  -9.1256814  38.3930000  31.4950000  -9.0440000
  37.8350000  31.4860000 -10.3020000  37.2500000  32.6500000 -10.5320000
  36.7429490  32.8411414 -11.4777607  37.4160000  33.4150000  -9.4670000
  37.0745413  34.3588182  -9.3542481  38.1340000  32.7190000  -8.5250000
  38.3822578  33.1879936  -7.5728896  36.9060000  29.3300000  -7.8860000
  36.7630000  29.6690000  -6.7050000  35.8740000  29.1560000  -8.6950000
  35.9465034  28.7784463  -9.6289678  34.5700000  29.5820000  -8.2250000
  34.4580640  29.3634785  -7.1630123  34.4300000  31.0840000  -8.4300000
  35.2325395  31.5702920  -7.8754283  34.5504770  31.2857576  -9.4943680
  33.1310000  31.6090000  -7.9750000  32.3741556  31.3236578  -8.7056622
  32.8581724  31.2133883  -6.9966552  33.1750000  33.0730000  -7.8930000
  33.0930000  33.7540000  -8.9010000  33.3500000  33.5880000  -6.6860000
  33.3884026  34.5904339  -6.5687270  33.4442954  32.9760835  -5.8880226
  33.4680000  28.8280000  -8.9560000  33.6260000  28.4470000 -10.1180000
  32.3390000  28.6320000  -8.2880000  32.2455740  28.7866001  -7.2942849
  31.2120000  28.0640000  -9.0050000  31.5653060  27.5988882  -9.9252962
  30.4960000  27.0030000  -8.1640000  29.7415007  26.5171133  -8.7826632
  31.2518813  26.2733498  -7.8735623  29.8440000  27.5690000  -6.9290000
  28.9910000  28.4690000  -7.0650000  30.1610000  27.1010000  -5.8160000
  30.2690000  29.1790000  -9.4530000  30.3920000  30.3370000  -9.0490000
  29.3300000  28.8140000 -10.3290000  29.2427913  27.8515597 -10.6226030
  28.4400000  29.8050000 -10.9300000  29.0265306  30.6162958 -11.3611384
  27.6010000  29.1650000 -12.0390000  28.3507143  28.6559537 -12.6447224
  26.9250804  28.4287868 -11.6040025  26.8020000  30.1340000 -12.9220000
  26.0486119  30.6234370 -12.3047815  27.7090000  31.1920000 -13.5540000
  28.4624135  30.7033140 -14.1717806  27.1110778  31.8613431 -14.1725221
  28.2005182  31.7660671 -12.7685338  26.0140000  29.4030000 -13.9850000
  25.3137549  28.7154918 -13.5105648  25.4622787  30.1234413 -14.5888785
  26.6969813  28.8422388 -14.6231085  27.5260000  30.4450000  -9.8970000
  27.1720000  31.6200000 -10.0260000  27.1370000  29.6950000  -8.8660000
  27.3924359  28.7203070  -8.7965354  26.2570000  30.2540000  -7.8450000
  25.3753732  30.6919265  -8.3130317  25.8050000  29.1590000  -6.8820000
  25.3251122  28.3887896  -7.4858071  26.7066772  28.7519361  -6.4244223
  24.8580000  29.6140000  -5.8050000  25.1765665  30.5789123  -5.4105886
  23.8488543  29.7018479  -6.2075043  24.8700000  28.5800000  -4.6870000
  24.3193291  27.7035117  -5.0285096  25.9059218  28.3037535  -4.4903957
  24.2360000  29.1110000  -3.4100000  23.1749877  29.2753896  -3.5979616
  24.3540257  28.3577577  -2.6310294  24.8680000  30.3930000  -2.9640000
  24.7583676  31.0912308  -3.6854945  24.4208524  30.7117076  -2.1163064
  25.8510740  30.2407911  -2.7893659  26.9440000  31.3950000  -7.1010000
  26.4160000  32.5110000  -7.0310000  28.1410000  31.1480000  -6.5630000
  28.5432171  30.2216583  -6.5484482  28.8870000  32.2380000  -5.9340000
  28.3245776  32.6007537  -5.0736571  30.2830000  31.7910000  -5.4570000
  30.7465728  31.3102302  -6.3184289  30.8200255  32.7098940  -5.2217611
  30.3390000  30.8400000  -4.2470000  29.6634990  31.2223450  -3.4817474
  30.0002181  29.8560158  -4.5711974  31.7910000  30.7250000  -3.6540000
  32.1047351  31.7387986  -3.4052398  31.7062516  30.1369132  -2.7401778
  32.8600000  30.0630000  -4.6080000  32.9566213  30.7550445  -5.4445640
  33.7855257  30.0583057  -4.0322577  32.5870000  28.6720000  -5.1340000
  31.7296518  28.6762244  -5.6678875  33.3511352  28.3801406  -5.7264656
  32.4978591  28.0305028  -4.3589940  29.0420000  33.3980000  -6.9000000
  28.9230000  34.5630000  -6.5080000  29.3270000  33.1020000  -8.1670000
  29.4618353  32.1482136  -8.4706613  29.5190000  34.1720000  -9.1410000
  30.2187170  34.9080760  -8.7451624  30.0820000  33.6170000 -10.4490000
  31.0684725  33.1875984 -10.2741132  29.4233475  32.8550734 -10.8658271
  30.2510000  34.6600000 -11.5050000  31.3010000  35.5570000 -11.4410000
  32.0063359  35.4899942 -10.6126816  31.4640000  36.5360000 -12.4160000
  32.3000642  37.2320961 -12.3485636  30.5720000  36.6280000 -13.4660000
  30.7033921  37.3923802 -14.2318714  29.5100000  35.7470000 -13.5440000
  28.7965680  35.8165280 -14.3651460  29.3530000  34.7620000 -12.5620000
  28.5188867  34.0627168 -12.6199484  28.2180000  34.9280000  -9.4060000
  28.2180000  36.1630000  -9.5180000  27.1030000  34.2030000  -9.5320000
  27.1395960  33.1943814  -9.5700606  25.8070000  34.8540000  -9.6840000
  25.8278411  35.5269696 -10.5411912  24.7130000  33.8100000  -9.9090000
  24.8973754  32.9984996  -9.2050312  23.7627177  34.2879151  -9.6709648
  24.6590000  33.2490000 -11.3300000  24.5092153  34.0917086 -12.0049130
  25.6260895  32.7889897 -11.5330529  23.3490000  32.0270000 -11.6030000
  23.5300000  30.9470000 -10.1710000  23.3878285  31.5258582  -9.2584161
  22.7841904  30.1534410 -10.2171827  24.5275800  30.5077563 -10.1703209
  25.4760000  35.7200000  -8.4730000  25.0060000  36.8530000  -8.6240000
  25.6790000  35.1940000  -7.2600000  25.9784601  34.2367523  -7.1412577
  25.4130000  35.9900000  -6.0640000  24.3642280  36.2862178  -6.0432289
  25.7180000  35.1770000  -4.7990000  26.7082468  34.7358185  -4.9124436
  25.7252272  35.8741599  -3.9611361  24.6910000  34.0670000  -4.5320000
  23.6080000  34.0800000  -5.1620000  24.9740000  33.1720000  -3.6940000
  26.2350000  37.2760000  -6.0800000  25.7030000  38.3760000  -5.8770000
  27.5420000  37.1500000  -6.3320000  27.9536859  36.2416411  -6.4916813
  28.4200000  38.3150000  -6.3210000  28.3577708  38.7930928  -5.3434244
  29.8620000  37.8780000  -6.5590000  29.9421481  37.4055677  -7.5380220
  30.5169021  38.7485162  -6.5215147  30.1587913  37.1672147  -5.7877682
  27.9990000  39.3450000  -7.3590000  28.2840000  40.5360000  -7.2000000
  27.3290000  38.9100000  -8.4220000  27.1327150  37.9225342  -8.5025164
  26.9000000  39.7890000  -9.5000000  27.4877429  40.7068996  -9.4891469
  27.0970000  39.0990000 -10.8490000  26.3253766  38.3397701 -10.9765399
  27.0116719  39.8401033 -11.6437233  28.3710000  38.4900000 -10.9080000
  28.4813727  38.0608170 -11.7595983  25.4490000  40.2220000  -9.3810000
  24.9220000  40.8170000 -10.3210000  24.7880000  39.9350000  -8.2590000
  25.2626837  39.5723635  -7.4445864  23.3360000  40.0790000  -8.2070000
  22.9125200  39.5668985  -9.0710115  22.7980000  39.4250000  -6.9420000
  23.2060382  39.9328001  -6.0680756  21.7105076  39.4977504  -6.9290399
  23.0916860  38.3755045  -6.9218253  22.8930000  41.5340000  -8.2730000
  21.7820000  41.8210000  -8.7330000  23.7290000  42.4670000  -7.8160000
  24.6194408  42.2330862  -7.4006701  23.3300000  43.8690000  -7.8520000
  22.2651075  43.9592386  -7.6376170  24.1050000  44.6600000  -6.8080000
  25.1213669  44.2689585  -6.8547348  24.1163914  45.7273249  -7.0288796
  23.5370000  44.4360000  -5.4060000  23.7576833  43.4223361  -5.0715075
  24.1880000  45.4380000  -4.4560000  23.9673557  46.4519641  -4.7896043
  23.7949596  45.2935496  -3.4496431  25.2671844  45.2849686  -4.4494541
  21.9820000  44.5240000  -5.3630000  21.5563250  43.7649905  -6.0193571
  21.6361782  44.3568589  -4.3429155  21.6641052  45.5118009  -5.6966033
  23.5340000  44.4690000  -9.2310000  22.5940000  45.0110000  -9.8250000
  24.7600000  44.3720000  -9.7540000  25.5167065  43.9649896  -9.2231167
  25.0560000  44.9150000 -11.0760000  24.6288061  45.9142433 -11.1603641
  26.5670000  45.0130000 -11.2660000  26.7776758  45.4193940 -12.2552219
  27.1650000  45.9140000 -10.2150000  26.9551195  45.5079802  -9.2254558
  28.2434669  45.9765868 -10.3602277  26.7292733  46.9096215 -10.2985500
  27.1510000  43.7160000 -11.1300000  28.1014305  43.7788742 -11.2497043
  24.4230000  44.0750000 -12.1820000  23.9570000  44.6190000 -13.1870000
  24.3540000  42.7600000 -11.9960000  24.5915112  42.3722656 -11.0941409
  23.9470000  41.8520000 -13.0480000  23.4322981  41.0030594 -12.5980210
  23.2654614  42.3757634 -13.7182809  25.1360000  41.3420000 -13.8500000
  26.2230000  41.9190000 -13.8500000  24.9280000  40.2220000 -14.5350000
  24.0746162  39.6915076 -14.4329550  25.9670000  39.7000000 -15.4220000
  26.9499468  40.0223278 -15.0784604  25.9330000  38.1640000 -15.5100000
  25.0304925  37.8546543 -16.0371488  27.1440000  37.6630000 -16.2520000
  28.0469527  37.9715810 -15.7251653  27.1112730  36.5749983 -16.3092893
  27.1515009  38.0792998 -17.2593418  25.8660000  37.5370000 -14.1190000
  26.8236813  37.7208092 -13.6320076  25.0754020  38.0474334 -13.5689891
  25.5890000  36.0580000 -14.1380000  26.3794758  35.5468052 -14.6874796
  25.5554014  35.6809551 -13.1158418  24.6311969  35.8734294 -14.6244635
  25.7530000  40.3390000 -16.7890000  24.6100000  40.3900000 -17.2710000
  26.7950000  40.8500000 -17.4400000  28.2060000  40.8370000 -17.0330000
  28.6394524  39.8579637 -17.2372236  28.2841994  41.0533063 -15.9675445
  28.7980000  41.9100000 -17.8740000  29.8439664  41.6743543 -18.0702764
  28.7336369  42.8586503 -17.3410634  28.0050000  41.9530000 -19.1330000
  28.4705198  41.2567138 -19.8305499  27.9404414  42.9389336 -19.5932898
  26.6050000  41.4580000 -18.7600000  25.8818540  42.2692594 -18.6762366
  26.0940000  40.4240000 -19.7550000  26.5460000  39.2770000 -19.7700000
  25.1370000  40.8400000 -20.5870000  24.7574886  41.7725962 -20.5074090
  24.5620000  39.9410000 -21.5850000  23.9581071  39.1738442 -21.1003512
  23.6640000  40.7430000 -22.5380000  23.9804473  41.7752170 -22.3880387
  23.9096666  40.4320824 -23.5534202  22.1520000  40.6370000 -22.3240000
  21.6347893  41.3616538 -22.9528647  21.7120000  39.2400000 -22.6990000
  22.2284762  38.5147660 -22.0702021  20.6359736  39.1458571 -22.5526954
  21.9538827  39.0507789 -23.7448435  21.7710000  40.9600000 -20.8760000
  22.0846513  41.9757350 -20.6351582  20.6908332  40.8758833 -20.7565622
  22.2660054  40.2585604 -20.2043966  25.6110000  39.1740000 -22.3750000
  25.4480000  37.9540000 -22.5470000  26.6790000  39.7880000 -22.8760000
  26.9660000  41.2320000 -22.9170000  27.4202878  41.5441185 -21.9766251
  26.0412739  41.7869870 -23.0750190  27.9160000  41.3490000 -24.0880000
  28.5734689  42.2089006 -23.9599199  27.3598345  41.4531000 -25.0196354
  28.6980000  40.0430000 -24.0650000  29.4972706  40.0873818 -23.3252056
  29.1167281  39.7790171 -25.0361228  27.6530000  38.9980000 -23.6430000
  27.1399719  38.5880720 -24.5129767  28.2570000  37.8670000 -22.8340000
  28.5340000  36.7990000 -23.3980000  28.4460000  38.0540000 -21.5270000
  28.2581816  38.9451395 -21.0903148  28.9950000  36.9830000 -20.7040000
  29.8102667  36.4934556 -21.2367154  29.5330000  37.5310000 -19.3880000
  30.1790418  38.3597929 -19.6775368  28.7075895  37.9081703 -18.7842285
  30.3390000  36.5170000 -18.5730000  29.6545463  35.7343195 -18.2458376
  31.4790000  35.8950000 -19.3630000  32.1641655  36.6770700 -19.6901292
  32.0136576  35.1847197 -18.7323306  31.0778069  35.3765544 -20.2338379
  30.8880000  37.1400000 -17.3200000  30.0656637  37.5051338 -16.7047442
  31.4557472  36.3953920 -16.7620364  31.5412519  37.9718739 -17.5833376
  27.9640000  35.9020000 -20.4310000  28.3160000  34.7180000 -20.3780000
  26.6930000  36.2770000 -20.2490000  26.4293415  37.2445334 -20.1287394
  25.6510000  35.2560000 -20.1430000  25.8838486  34.5603407 -19.3368121
  24.2760000  35.8950000 -19.8870000  24.1056369  36.6644555 -20.6400040
  23.1670000  34.8650000 -19.9580000  23.3364366  34.0954086 -19.2049257
  22.2082480  35.3492559 -19.7725503  23.1573896  34.4083197 -20.9476716
  24.2500000  36.5760000 -18.5310000  24.4311010  35.8203056 -17.7666512
  25.0497315  37.3162071 -18.5060497  22.9430000  37.2470000 -18.2670000
  22.1427808  36.5072993 -18.2913318  22.9690592  37.7211720 -17.2858878
  22.7614102  38.0031997 -19.0307323  25.6420000  34.4090000 -21.4020000
  25.5850000  33.1740000 -21.3400000  25.7470000  35.0600000 -22.5640000
  25.7765673  36.0691299 -22.5936962  25.7470000  34.3320000 -23.8250000
  24.8761669  33.6785297 -23.8772066  25.6950000  35.3100000 -24.9990000
  24.9902015  36.0991502 -24.7370833  26.6912860  35.7368984 -25.1142036
  25.2690000  34.6650000 -26.3010000  26.0514066  33.9714254 -26.6090505
  24.3457626  34.1140357 -26.1216313  25.0400000  35.6960000 -27.4040000
  25.9566657  36.2758704 -27.5115796  24.8428674  35.1540383 -28.3289409
  23.8760000  36.6360000 -27.1080000  22.9868163  36.0572455 -26.8580077
  24.1303396  37.2891257 -26.2732321  23.6040000  37.4700000 -28.3330000
  23.3678828  36.8650118 -29.1065229  22.8341212  38.0973275 -28.1490250
  24.4276751  38.0066887 -28.5645679  26.9630000  33.4260000 -23.9180000
  26.8420000  32.2470000 -24.2630000  28.1460000  33.9490000 -23.5970000
  28.2619015  34.9206137 -23.3467341  29.3320000  33.1050000 -23.6570000
  29.4668268  32.7350239 -24.6733851  30.5750000  33.8870000 -23.2550000
  30.6779367  34.7604629 -23.8988678  30.4808825  34.2096660 -22.2181159
  31.7210000  33.0620000 -23.3910000  32.5034678  33.5568491 -23.1370940
  29.1730000  31.8880000 -22.7610000  29.4500000  30.7580000 -23.1740000
  28.7180000  32.0990000 -21.5250000  28.4941359  33.0272241 -21.1957825
  28.6030000  30.9850000 -20.5870000  29.5495900  30.4469378 -20.5364475
  28.2550000  31.4930000 -19.1890000  27.5267028  32.2884339 -19.3470103
  27.7796406  30.6650788 -18.6629962  29.4130000  32.0240000 -18.3570000
  30.7420000  31.8500000 -18.7430000  30.9529787  31.3224552 -19.6732064
  31.7950000  32.3380000 -17.9610000  32.8294585  32.1971410 -18.2742990
  31.5150000  32.9990000 -16.7830000  32.5210000  33.5060000 -15.9830000
  33.3987128  33.3457348 -16.3373092  30.2070000  33.1680000 -16.3840000
  29.9902022  33.6838244 -15.4485726  29.1680000  32.6850000 -17.1670000
  28.1350515  32.8235844 -16.8477637  27.5700000  29.9560000 -21.0480000
  27.7970000  28.7450000 -20.9310000  26.4170000  30.4090000 -21.5450000
  26.1866780  31.3919548 -21.5741724  25.4230000  29.4510000 -22.0190000
  25.1877290  28.7412996 -21.2258594  24.1410000  30.1670000 -22.4280000
  23.8471445  30.7980968 -21.5892718  24.3179342  30.7889358 -23.3054908
  23.0280000  29.1710000 -22.7280000  23.3259209  28.5395851 -23.5650539
  22.7680000  28.3070000 -21.5120000  22.4695615  28.9377120 -20.6746019
  21.9710490  27.5971879 -21.7336678  23.6759608  27.7632566 -21.2511347
  21.7600000  29.9110000 -23.1420000  21.9596168  30.5035751 -24.0348087
  20.9706968  29.1898325 -23.3541772  21.4423226  30.5691272 -22.3332673
  25.9740000  28.6500000 -23.1850000  25.8030000  27.4240000 -23.2550000
  26.6620000  29.3320000 -24.1000000  26.7640295  30.3340383 -24.0251103
  27.2300000  28.6650000 -25.2640000  26.4433907  28.1788776 -25.8410876
  27.9260000  29.6930000 -26.1560000  27.2494612  30.5182368 -26.3782134
  28.8159719  30.0775376 -25.6578224  28.3760000  29.1430000 -27.4710000
  27.4550000  28.9030000 -28.4810000  26.4012842  29.1163459 -28.3013717
  27.8570000  28.4030000 -29.6950000  27.1293275  28.2210275 -30.4858726
  29.1910000  28.1310000 -29.9100000  29.5118703  27.7275174 -30.8703874
  30.1180000  28.3670000 -28.9170000  31.1729765  28.1570279 -29.0931716
  29.7100000  28.8680000 -27.7030000  30.4410080  29.0509158 -26.9154284
  28.1970000  27.5640000 -24.8440000  28.0700000  26.4110000 -25.2720000
  29.1710000  27.9030000 -23.9970000  29.2899707  28.8628596 -23.7061136
  30.1220000  26.9070000 -23.5060000  30.6670879  26.4690177 -24.3421518
  31.1260000  27.5600000 -22.5570000  30.5417551  28.0062281 -21.7522407
  31.7386787  26.7526163 -22.1559310  32.0250000  28.6180000 -23.1770000
  32.6499476  28.1370245 -23.9294652  31.4230663  29.3950865 -23.6480780
  32.9240000  29.2630000 -22.1410000  33.8210000  28.6140000 -21.5970000
  32.6730000  30.5400000 -21.8430000  33.2426688  31.0171291 -21.1589483
  31.9146027  31.0230639 -22.3029828  29.4100000  25.7630000 -22.8010000
  29.7680000  24.5940000 -22.9930000  28.4050000  26.0850000 -21.9690000
  28.1796021  27.0503824 -21.7757854  27.6550000  25.0460000 -21.2700000
  28.3434480  24.4099471 -20.7136052  26.6530000  25.6620000 -20.2860000
  26.2044553  26.4708057 -20.8628364  25.8996572  24.9013205 -20.0812043
  27.1930000  26.2180000 -18.9590000  27.9750196  26.9463923 -19.1734548
  26.0930000  26.8800000 -18.1740000  25.3107729  26.1520657 -17.9587529
  26.4960235  27.2669426 -17.2380789  25.6742936  27.7011880 -18.7557522
  27.8370000  25.1450000 -18.1210000  28.6693549  24.7049349 -18.6702062
  28.2051008  25.5806582 -17.1921270  27.1032883  24.3717418 -17.8933205
  26.9420000  24.1440000 -22.2610000  26.9050000  22.9200000 -22.0850000
  26.3760000  24.7240000 -23.3210000  26.3152802  25.7271463 -23.4215483
  25.7390000  23.8880000 -24.3320000  25.0734699  23.1657585 -23.8592040
  24.9200000  24.7600000 -25.2750000  25.5479176  25.6186958 -25.5126137
  24.6748731  24.2248455 -26.1923999  23.6280000  25.2420000 -24.6040000
  23.8490439  25.5100490 -23.5708542  23.0570000  26.4460000 -25.3270000
  22.8352579  26.1785779 -26.3601576  22.1412852  26.7677390 -24.8309646
  23.7833381  27.2585633 -25.3104384  22.5970000  24.1070000 -24.5440000
  23.0046275  23.2751610 -23.9695584  21.6867079  24.4672870 -24.0647685
  22.3662889  23.7711976 -25.5549936  26.7600000  23.0420000 -25.0980000
  26.4710000  21.8900000 -25.4450000  27.9620000  23.5670000 -25.3460000
  28.1682689  24.5349237 -25.1443167  28.9950000  22.7580000 -25.9900000
  28.6008424  22.3078630 -26.9011068  30.1960000  23.6300000 -26.3560000
  30.5026985  24.1542312 -25.4508940  30.9951046  22.9615959 -26.6765742
  29.9120000  24.6350000 -27.4480000  29.4481489  24.1489341 -28.3063024
  29.2330654  25.3871897 -27.0463029  31.1670000  25.3170000 -27.9040000
  31.9450000  25.8270000 -27.0920000  31.3990000  25.3070000 -29.2110000
  32.2291468  25.7509752 -29.5768468  30.7443033  24.8554610 -29.8335641
  29.4200000  21.5970000 -25.0970000  29.4580000  20.4380000 -25.5340000
  29.7500000  21.8910000 -23.8420000  29.8139445  22.8435084 -23.5122452
  30.0300000  20.8180000 -22.9050000  30.9486455  20.3181730 -23.2121849
  30.1655076  21.2484851 -21.9128208  28.9110000  19.8020000 -22.8520000
  29.1450000  18.5990000 -22.9450000  27.6710000  20.2720000 -22.7020000
  27.4856258  21.2597221 -22.6012981  26.5510000  19.3450000 -22.6010000
  26.7584866  18.5875183 -21.8451759  25.2890000  20.0990000 -22.2010000
  25.5869039  20.6679521 -21.3202923  25.0206618  20.7863285 -23.0032931
  24.0830000  19.2210000 -21.8570000  23.7881728  18.6464122 -22.7350812
  24.4540000  18.2740000 -20.7360000  24.7485166  18.8478974 -19.8573644
  23.5963608  17.6479792 -20.4897201  25.2846688  17.6431989 -21.0525118
  22.8610000  20.0590000 -21.4770000  22.5877343  20.7035357 -22.3124634
  22.0266024  19.3989318 -21.2399518  23.0966690  20.6725129 -20.6074248
  26.3400000  18.5770000 -23.9050000  26.0510000  17.3760000 -23.8810000
  26.4690000  19.2420000 -25.0570000  26.6407580  20.2367031 -25.0911225
  26.3020000  18.5240000 -26.3190000  25.3276565  18.0353794 -26.3209841
  26.3670000  19.4890000 -27.5030000  27.3403513  19.9793125 -27.5197609
  26.2232162  18.9361345 -28.4313137  25.5838422  20.2405441 -27.4032777
  27.3560000  17.4430000 -26.4680000  27.0900000  16.3780000 -27.0290000
  28.5600000  17.6960000 -25.9690000  28.8046449  18.6101407 -25.6160198
  29.5850000  16.6610000 -25.9750000  29.7423925  16.2861095 -26.9863278
  30.8950000  17.2520000 -25.4650000  31.1250382  18.1745022 -25.9980773
  30.8143144  17.4599663 -24.3980699  32.0680000  16.3590000 -25.6360000
  32.7280000  16.2980000 -26.8510000  32.3775049  16.9098285 -27.6822153
  33.8260000  15.4680000 -27.0160000  34.3355066  15.4203493 -27.9784101
  34.2740000  14.7010000 -25.9590000  35.1430062  14.0551365 -26.0846518
  33.6200000  14.7520000 -24.7400000  33.9662922  14.1430091 -23.9049479
  32.5230000  15.5800000 -24.5840000  32.0060521  15.6249686 -23.6254372
  29.1530000  15.4740000 -25.1310000  29.2560000  14.3200000 -25.5580000
  28.6590000  15.7450000 -23.9220000  28.6412149  16.6947236 -23.5787681
  28.1790000  14.6820000 -23.0430000  28.9994143  14.0108272 -22.7889395
  27.6170000  15.2780000 -21.7510000  26.9229221  16.0876481 -21.9764441
  27.1038495  14.5112747 -21.1705615  28.8690000  15.9820000 -20.6550000
  28.0212190  16.3696551 -19.7063752  27.1210000  13.8390000 -23.7300000
  27.2070000  12.6080000 -23.7640000  26.1150000  14.4950000 -24.2900000
  26.0626916  15.5030100 -24.2542372  25.0180000  13.7700000 -24.9070000
  24.6408660  13.0016851 -24.2320471  23.8870000  14.7450000 -25.2160000
  24.2650333  15.6009599 -25.7750373  23.1065937  14.2501119 -25.7940586
  23.2290000  15.2920000 -23.9890000  22.2170000  16.2290000 -24.0260000
  21.8340000  16.5080000 -22.7930000  21.0366779  17.2280902 -22.6090256
  22.5640000  15.7900000 -21.9570000  22.4921774  15.7949868 -20.9495693
  23.4470000  15.0260000 -22.6800000  24.1448671  14.3656743 -22.1651673
  25.4780000  13.0370000 -26.1540000  25.0870000  11.8920000 -26.3880000
  26.3050000  13.6780000 -26.9740000  26.5346559  14.6557444 -26.8673543
  26.8430000  12.9640000 -28.1230000  26.0284869  12.5589289 -28.7234874
  27.6680000  13.9100000 -28.9940000  27.7187224  13.4992410 -30.0023668
  27.1710091  14.8797041 -29.0218228  28.9760000  14.0660000 -28.4830000
  29.4710797  14.6637379 -29.0479827  27.6680000  11.7640000 -27.6690000
  27.7790000  10.7670000 -28.3930000  28.2170000  11.8180000 -26.4600000
  28.2755927  12.6910831 -25.9556271  28.8580000  10.6460000 -25.8860000
  29.1802905   9.9670732 -26.6754849  30.0800000  11.0750000 -25.0840000
  29.8881264  11.8661704 -24.3592013  30.4543175  10.1917683 -24.5664208
  31.1900000  11.5590000 -25.9620000  30.9630000  12.3920000 -27.0380000
  32.1050000  12.6190000 -27.6650000  32.1375948  13.2661666 -28.5414770
  33.0620000  11.9530000 -27.0430000  34.0390809  11.9376457 -27.2982979
  32.5140000  11.2750000 -25.9800000  33.1462716  10.6543624 -25.3450647
  27.9020000   9.7940000 -25.0610000  28.3280000   8.8080000 -24.4800000
  26.6120000  10.0440000 -25.0990000  26.2999409  10.9286602 -25.4732924
  25.6170000   9.1780000 -24.4160000  24.6275725   9.6281998 -24.4963281
  25.5730000   7.7920000 -25.0430000  26.4128421   7.2261658 -24.6397678
  24.6383683   7.3246437 -24.7329325  25.6530000   7.8050000 -26.5530000
  26.1402206   8.7424349 -26.8212028  26.2969689   6.9697200 -26.8281606
  24.3540000   7.6930000 -27.2820000  24.1527994   8.6806669 -27.6968873
  24.5218792   6.9856421 -28.0941335  23.2010000   7.2650000 -26.5270000
  23.1921388   7.4629539 -25.5366288  22.1830000   6.5940000 -27.0470000
  22.1690000   6.2610000 -28.3240000  22.9435955   6.5190895 -28.9185516
  21.3837551   5.7496163 -28.7007980  21.1520000   6.2940000 -26.2960000
  21.1386900   6.5753949 -25.3260826  20.3754260   5.7827635 -26.6905488
  25.7880000   9.1920000 -22.8950000  25.6110000   8.1490000 -22.2890000
  26.0960000  10.3440000 -22.3310000  26.3177280  11.1226546 -22.9348485
  26.1830000  10.5400000 -20.8950000  25.9123712   9.6332056 -20.3540905
  27.6060000  10.9470000 -20.4890000  27.9763471  11.6780024 -21.2077335
  27.6310000  11.5420000 -19.1140000  27.2611999  10.8113725 -18.3946028
  28.6530183  11.8197630 -18.8562661  26.9969908  12.4283031 -19.0894892
  28.5160000   9.7330000 -20.5500000  28.5271644   9.3373076 -21.5655811
  29.5269226  10.0212019 -20.2617729  28.1480826   8.9677791 -19.8664983
  25.1590000  11.6030000 -20.5080000  25.1620000  12.7030000 -21.0710000
  24.2550000  11.2590000 -19.5970000  24.1836913  10.2946731 -19.3053015
  23.3640000  12.2330000 -18.9840000  23.1782154  13.0467266 -19.6850223
  22.0310000  11.6000000 -18.6090000  22.3132495  10.8438679 -17.8764028
  21.4930679  12.4059111 -18.1097643  21.1400000  10.9750000 -19.6610000
  21.6569526  10.1442600 -20.1413456  19.8870000  10.4660000 -18.9870000
  19.3692266  11.2963058 -18.5067898  19.2325097  10.0118447 -19.7309665
  20.1541420   9.7221662 -18.2363690  20.7920000  12.0180000 -20.7060000
  21.7062431  12.3843935 -21.1729204  20.1502257  11.5718566 -21.4657257
  20.2691130  12.8482868 -20.2313295  24.0060000  12.7680000 -17.7170000
  24.3690000  11.9860000 -16.8330000  24.0970000  14.0930000 -17.5940000
  23.8158785  14.7229831 -18.3316933  24.6940000  14.6630000 -16.3840000
  25.6240769  14.1429707 -16.1545973  24.9990000  16.1460000 -16.5760000
  25.5884117  16.2447630 -17.4875586  24.1069840  16.7678501 -16.6515642
  25.8220000  16.7140000 -15.4730000  25.2930000  17.0120000 -14.2360000
  26.2550000  17.4630000 -13.4500000  26.0369754  17.7745138 -12.4284701
  27.3910000  17.4420000 -14.1270000  28.2962873  17.7203771 -13.7761996
  27.1470000  16.9780000 -15.3950000  27.9653374  16.8883687 -16.1094167
  23.8000000  14.4600000 -15.1620000  24.2480000  13.9540000 -14.1270000
  22.5400000  14.8730000 -15.2450000  22.2934638  15.4368806 -16.0458483
  21.5190000  14.6300000 -14.2280000  20.5484756  14.9340388 -14.6200994
  21.4440000  13.1500000 -13.8260000  22.4095151  12.8886787 -13.3928823
  20.6696796  13.0663346 -13.0634202  21.1330000  12.2110000 -14.9620000
  20.5008498  12.7358280 -15.6782699  22.0703818  11.9307678 -15.4425074
  20.4220000  10.9660000 -14.4800000  19.7087943  11.2559527 -13.7084016
  19.8867743  10.5291813 -15.3231028  21.3270000   9.9590000 -13.9270000
  22.0755091   9.6500414 -14.5306373  21.2310000   9.4250000 -12.7060000
  20.2570000   9.7970000 -11.8620000  19.5824049  10.4917515 -12.1489526
  20.2026743   9.3806475 -10.9434147  22.1240000   8.5130000 -12.3220000
  22.8612692   8.2352180 -12.9539584  22.0592983   8.1039027 -11.4008313
  21.6860000  15.4650000 -12.9490000  20.8510000  15.3480000 -12.0400000
  22.7160000  16.3010000 -12.8330000  23.4703034  16.3125190 -13.5045602
  22.8240000  17.1620000 -11.6520000  21.8345669  17.3092800 -11.2190681
  23.7360000  16.5360000 -10.5890000  23.5416976  15.4634945 -10.5978208
  24.7726803  16.7192440 -10.8715164  23.4840000  17.0910000  -9.1760000
  22.3380000  17.5180000  -8.8900000  24.4460000  17.1160000  -8.3580000
  23.3000000  18.5610000 -12.0540000  24.0680000  19.2110000 -11.3370000
  22.8420000  19.0550000 -13.1970000  22.2794771  18.5047987 -13.8302028
  23.1980000  20.4080000 -13.5900000  24.2717913  20.5503808 -13.4683481
  22.8330000  20.6740000 -15.0470000  21.7597109  20.4932580 -15.1060088
  23.0375213  21.7208320 -15.2715302  23.5550000  19.7860000 -16.0590000
  23.4052638  18.7439607 -15.7764510  23.0280000  20.0090000 -17.4570000
  23.1778159  21.0507827 -17.7404481  23.5614169  19.3629645 -18.1542843
  21.9639549  19.7743936 -17.4864651  25.0310000  20.0490000 -16.0170000
  25.4107043  19.8335068 -15.0182574  25.5351441  19.4104675 -16.7424076
  25.2213544  21.0944320 -16.2597676  22.4950000  21.3890000 -12.6660000
  21.2660000  21.4420000 -12.6120000  23.2820000  22.1340000 -11.9130000
  24.2670608  21.9114277 -11.9277011  22.8340000  23.2210000 -11.0590000
  22.0121669  23.7472288 -11.5445643  22.3480000  22.7000000  -9.7010000
  22.0391907  23.5639165  -9.1124558  21.4850156  22.0607895  -9.8874614
  23.3980000  21.9200000  -8.9390000  23.7562331  21.0985347  -9.5594552
  24.2302222  22.5805068  -8.6956093  22.8080000  21.3690000  -7.6700000
  22.3461285  22.1899315  -7.1215065  22.0461454  20.6361214  -7.9356427
  23.8440000  20.7210000  -6.8150000  24.3919868  19.9721679  -7.3868930
  24.5405911  21.4675828  -6.4335894  23.1580000  20.0720000  -5.6900000
  22.5127881  19.3798604  -6.0431914  23.8390158  19.6241172  -5.0935785
  22.6505091  20.7657766  -5.1596924  24.0100000  24.1660000 -10.8800000
  25.1630000  23.7580000 -11.0430000  23.7570000  25.4340000 -10.5760000
  22.4450000  26.0740000 -10.4130000  21.8176347  25.4614652  -9.7654552
  21.9667599  26.1800668 -11.3867224  22.7860000  27.3880000  -9.8020000
  22.5955636  27.3169599  -8.7311189  22.1282770  28.1397079 -10.2383909
  24.2270000  27.7080000 -10.0830000  24.7348730  28.0661773  -9.1875264
  24.2938660  28.4643058 -10.8650678  24.8750000  26.3980000 -10.5630000
  25.2098470  26.5129262 -11.5939063  26.0550000  25.9800000  -9.6890000
  27.2040000  26.2410000 -10.0760000  25.8220000  25.3250000  -8.5430000
  24.8841085  25.1780071  -8.1982507  26.9410000  24.8610000  -7.7260000
  27.5947361  25.7007824  -7.4904286  26.4410000  24.2450000  -6.4120000
  25.7638852  23.4358344  -6.6856162  27.3156066  23.8319303  -5.9094696
  25.7260000  25.2100000  -5.4750000  25.9944309  24.9628971  -4.4478750
  26.0583047  26.2227119  -5.7032328  24.1970000  25.1530000  -5.6100000
  23.6260000  25.3550000  -6.7070000  23.5240000  24.8730000  -4.4890000
  22.5155617  24.8204565  -4.5088177  24.0271706  24.7153264  -3.6275711
  27.8220000  23.8480000  -8.4590000  28.9600000  23.6230000  -8.0390000
  27.3380000  23.2260000  -9.5350000  26.3911560  23.4078681  -9.8358484
  28.1100000  22.2190000 -10.2530000  28.9631133  21.9057397  -9.6511986
  27.2390000  20.9920000 -10.5440000  26.2630132  21.3271845 -10.8949989
  27.7160590  20.3907605 -11.3179676  27.0420000  20.1330000  -9.3190000
  27.7570000  20.3080000  -8.3390000  26.0850000  19.2040000  -9.3580000
  25.9269327  18.6121781  -8.5549674  25.5230581  19.0968808 -10.1903746
  28.7240000  22.7480000 -11.5450000  29.1990000  21.9540000 -12.3650000
  28.7160000  24.0630000 -11.7510000  28.2582826  24.6470255 -11.0657932
  29.3090000  24.7040000 -12.9220000  29.7319190  23.9428734 -13.5776867
  28.2640000  25.4970000 -13.7050000  28.0217006  26.3571020 -13.0808087
  28.7143638  25.8400472 -14.6364457  26.9960000  24.7220000 -14.0120000
  26.5544950  24.3742614 -13.0780556  26.0100000  25.6040000 -14.7360000
  26.4506514  25.9517764 -15.6703323  25.1041959  25.0370663 -14.9509553
  25.7614835  26.4615529 -14.1107456  27.3480000  23.5050000 -14.8470000
  28.0397973  22.8709739 -14.2924490  26.4413421  22.9431408 -15.0714705
  27.8160901  23.8253753 -15.7777794  30.4190000  25.6220000 -12.4330000
  30.1730000  26.5220000 -11.6150000  31.6350000  25.3970000 -12.9150000
  31.7826122  24.6887695 -13.6197833  32.7950000  26.1130000 -12.4020000
  32.4942296  26.7281409 -11.5539210  33.8890000  25.1450000 -11.9410000
  34.2688341  24.6783713 -12.8498911  34.6932320  25.6947532 -11.4520395
  33.3620000  24.0640000 -10.9950000  32.6450152  23.4484774 -11.5382914
  34.4620000  23.2070000 -10.4830000  35.1791943  23.8217913  -9.9391592
  34.0523217  22.4500459  -9.8142063  34.9627903  22.7194197 -11.3194060
  32.6080000  24.6600000  -9.8380000  31.7593070  25.2321440 -10.2127945
  32.2490002  23.8621097  -9.1879296  33.2685100  25.3182678  -9.2736340
  33.3320000  27.0570000 -13.4600000  33.3170000  26.7450000 -14.6590000
  33.7910000  28.2140000 -13.0020000  33.7067143  28.4106064 -12.0149128
  34.3620000  29.2370000 -13.8620000  34.3922831  28.8540897 -14.8820793
  33.5390000  30.5420000 -13.8270000  33.9698755  31.2527778 -14.5321536
  32.0970000  30.2680000 -14.2040000  31.6652783  29.5576086 -13.4989744
  31.5300920  31.1985079 -14.1744851  32.0569780  29.8505241 -15.2100871
  33.5780000  31.1450000 -12.4310000  33.1619041  30.4105483 -11.7414018
  34.6223957  31.3286014 -12.1787550  32.8070000  32.4230000 -12.3230000
  31.7623437  32.2400871 -12.5746663  32.8734370  32.8029751 -11.3035373
  33.2228343  33.1581399 -13.0120218  35.7980000  29.4890000 -13.4210000
  36.1380000  29.3790000 -12.2360000  36.6470000  29.8060000 -14.3900000
  36.3838503  29.6690431 -15.3554504  37.9960000  30.2480000 -14.1020000
  38.2222772  30.0901750 -13.0474911  39.0050000  29.4530000 -14.9450000
  40.0117424  29.6820561 -14.5955685  38.8019502  28.3924223 -14.7965220
  38.9250000  29.7610000 -16.4400000  38.2430000  30.6990000 -16.8710000
  39.6420000  28.9670000 -17.2400000  39.6312682  29.1188259 -18.2384656
  40.1915527  28.2184900 -16.8427274  38.0550000  31.7580000 -14.3260000
  37.0320000  32.4110000 -14.5620000  39.2580000  32.3230000 -14.2430000
  40.0600401  31.7577213 -14.0036447  39.4510000  33.7550000 -14.4200000
  38.5397473  34.3148394 -14.2095303  40.5580000  34.2560000 -13.4910000
  40.6852327  35.3285150 -13.6380495  40.1980000  33.9810000 -12.0290000
  40.0710543  32.9085732 -11.8810638  40.9972200  34.3442753 -11.3829524
  39.2689851  34.4940308 -11.7803410  41.8010000  33.6220000 -13.8330000
  42.4932777  33.9386777 -13.2481349  39.7710000  34.1300000 -15.8580000
  40.1510000  35.2700000 -16.1240000  39.6350000  33.1970000 -16.7890000
  39.3454785  32.2684657 -16.5167855  39.9490000  33.4390000 -18.1890000
  40.3982059  34.4255159 -18.3034533  40.9400000  32.3870000 -18.7010000
  40.4328609  31.4224296 -18.6783471  41.1853089  32.6438166 -19.7315187
  42.2290000  32.3060000 -17.8740000  42.6390954  33.3132712 -17.8010111
  41.9471644  31.9561688 -16.8808807  43.2880000  31.3640000 -18.4670000
  42.9460000  30.5290000 -19.3470000  44.4710000  31.4690000 -18.0540000
  38.7060000  33.4500000 -19.0600000  38.8260000  33.4800000 -20.2840000
  37.5200000  33.4160000 -18.4590000  37.4706005  33.3376475 -17.4532565
  36.2830000  33.4880000 -19.2020000  35.5913836  34.0894857 -18.6121009
  36.5028300  34.0013403 -20.1380854  35.6390000  32.1610000 -19.5100000
  34.6370000  32.1350000 -20.2320000  36.1660000  31.0660000 -18.9830000
  36.9810112  31.1357252 -18.3905521  35.6260000  29.7430000 -19.2610000
  35.0560528  29.7929393 -20.1887745  36.7400000  28.7090000 -19.4270000
  37.3139876  28.6410160 -18.5028699  36.3030269  27.7368122 -19.6550477
  37.3982913  29.0109800 -20.2415919  34.6910000  29.2830000 -18.1550000
  34.8080000  29.6850000 -16.9960000  33.7600000  28.4170000 -18.5320000
  33.6051842  28.2480914 -19.5156673  32.9100000  27.7330000 -17.5740000
  33.3174992  27.7789718 -16.5640841  31.4830000  28.2940000 -17.5750000
  31.5179594  29.3645563 -17.3730412  30.8370000  28.0570000 -18.9150000
  30.8012601  26.9865652 -19.1174664  29.8237490  28.4586868 -18.9065861
  31.4178775  28.5540081 -19.6919578  30.6850000  27.6840000 -16.4190000
  30.4622112  26.6498805 -16.6817980  31.3198753  27.7045416 -15.5332174
  29.3880000  28.4240000 -16.1300000  28.7523637  28.4034822 -17.0152375
  28.8707904  27.9414519 -15.3006986  29.6100280  29.4581445 -15.8666589
  32.9280000  26.2560000 -17.9350000  33.1430000  25.8900000 -19.0950000
  32.7360000  25.3960000 -16.9350000  32.5389660  25.7058086 -15.9940985
  32.8740000  23.9640000 -17.1770000  32.6298628  23.7429045 -18.2160443
  34.3230000  23.4960000 -16.8990000  34.4810369  23.5696334 -15.8230345
  34.3848482  22.4514133 -17.2041451  35.3970000  24.3040000 -17.6280000
  35.1170027  24.3604712 -18.6799094  35.4085917  25.3069396 -17.2012918
  36.7760000  23.6870000 -17.5050000  36.9971482  23.5261385 -16.4498621
  36.7816277  22.7300681 -18.0268707  37.8270000  24.5970000 -18.1080000
  37.3857932  25.1205455 -18.9561375  38.1315559  25.3216304 -17.3528472
  39.0120000  23.8300000 -18.5630000  38.7300788  23.1587786 -19.2630585
  39.6916421  24.4637760 -18.9586192  39.4212336  23.3451373 -17.7771660
  31.8950000  23.1570000 -16.3320000  31.6220000  23.4990000 -15.1730000
  31.3850000  22.0720000 -16.9320000  31.5786211  21.9054652 -17.9091778
  30.5350000  21.1220000 -16.2240000  29.7506128  21.6560095 -15.6876514
  29.8810000  20.1540000 -17.2090000  30.7271391  19.6287931 -17.6520638
  29.2735983  19.4492990 -16.6410567  29.0300000  20.7820000 -18.3210000
  29.6791192  21.3237926 -19.0088996  28.2900000  19.7020000 -19.0730000
  27.6402829  19.1600346 -18.3858027  27.6878703  20.1545218 -19.8608861
  29.0068455  19.0106288 -19.5159885  28.0480000  21.8150000 -17.7900000
  28.5956273  22.6163158 -17.2939186  27.4713229  22.2279653 -18.6176499
  27.3723046  21.3420655 -17.0773516  31.3610000  20.3400000 -15.2170000
  32.4230000  19.8220000 -15.5640000  30.8740000  20.2460000 -13.9750000
  30.0082157  20.7148505 -13.7498421  31.5640000  19.5260000 -12.9160000
  32.3122456  18.8704942 -13.3615781  32.2640000  20.4770000 -11.9440000
  31.5263844  21.1338283 -11.4829146  32.7693842  19.8992170 -11.1701435
  32.9958158  21.0766775 -12.4852317  30.5770000  18.6550000 -12.1550000
  29.3620000  18.7190000 -12.3580000  31.1280000  17.8550000 -11.2420000
  32.1367478  17.8346730 -11.1960224  30.3800000  16.9550000 -10.3780000
  31.0770249  16.3379779  -9.8109557  29.5010000  17.7230000  -9.3980000
  29.9959069  18.6517356  -9.1140694  28.5654666  17.9517652  -9.9084350
  29.2130000  16.9100000  -8.1630000  29.4610000  15.6650000  -8.2110000
  28.7710000  17.4930000  -7.1460000  29.5430000  15.9630000 -11.1880000
  28.3170000  16.0830000 -11.2880000  30.2400000  14.9680000 -11.7330000
  31.2424835  14.9848044 -11.6111650  29.6590000  13.8950000 -12.5280000
  28.7140771  14.2221420 -12.9618178  30.6100000  13.5070000 -13.6630000
  31.6450643  13.5380546 -13.3227403  30.3721741  12.5014562 -14.0100168
  30.5250000  14.4050000 -14.8600000  31.1330000  15.6450000 -14.8540000
  31.6741998  15.9770178 -13.9680164  31.0580000  16.4580000 -15.9570000
  31.5401293  17.4355456 -15.9494790  30.3640000  16.0320000 -17.0880000
  30.3026514  16.6767799 -17.9646956  29.7560000  14.7970000 -17.0980000
  29.2075942  14.4592160 -17.9773482  29.8430000  13.9940000 -15.9980000
  29.3724147  13.0108263 -16.0023556  29.3260000  12.6510000 -11.7090000
  29.2080000  11.5630000 -12.2790000  29.2010000  12.7780000 -10.3900000
  29.3238577  13.6666315  -9.9259532  28.8790000  11.6160000  -9.5790000
  29.6622179  10.8715752  -9.7221806  28.8579101  11.9239860  -8.5336296
  27.5410000  11.0000000  -9.9390000  27.3720000   9.7740000  -9.8790000
  26.5710000  11.8370000 -10.3190000  26.7421194  12.8323879 -10.3235226
  25.2380000  11.3640000 -10.6660000  25.0559569  10.4054768 -10.1800034
  24.1530000  12.3620000 -10.2100000  24.5247316  13.2713723 -10.6821832
  23.2334089  12.0469621 -10.7031564  23.8680000  12.6370000  -8.7170000
  24.7398159  13.1265827  -8.2830107  22.6390000  13.5310000  -8.5370000
  21.7666330  13.0418454  -8.9703619  22.4674762  13.7041503  -7.4745974
  22.8063033  14.4846525  -9.0376565  23.7030000  11.3600000  -7.8980000
  24.6169247  10.7689790  -7.9574578  23.5048148  11.6180098  -6.8576852
  22.8692371  10.7795782  -8.2930302  25.0740000  11.0930000 -12.1570000
  23.9710000  10.7310000 -12.5740000  26.1260000  11.2490000 -12.9630000
  27.0096440  11.5666320 -12.5910019  26.0230000  11.0180000 -14.4030000
  25.1580559  11.5606456 -14.7844534  27.2790000  11.5310000 -15.1200000
  28.1525061  10.9906350 -14.7551812  27.1759229  11.3715820 -16.1933412
  27.4019945  12.5956915 -14.9214964  25.8160000   9.5340000 -14.7160000
  26.3110000   8.6540000 -14.0110000  25.0760000   9.2580000 -15.7890000
  24.5870150   9.9911606 -16.2824254  24.9200000   7.8880000 -16.2570000
  25.7272958   7.2849025 -15.8414929  23.5850000   7.2670000 -15.8460000
  22.8030533   7.8890457 -16.2815661  23.5504443   6.2739969 -16.2941637
  23.3660000   7.1540000 -14.3520000  23.4512018   8.1595801 -13.9401138
  22.3502781   6.7867133 -14.2053316  24.3610000   6.2170000 -13.6320000
  24.3442700   5.2405735 -14.1161594  25.3630715   6.6399971 -13.7028914
  24.0210000   6.0440000 -12.2080000  23.3296362   5.3364498 -12.0043137
  24.5440000   6.7400000 -11.1880000  25.4730000   7.6860000 -11.3850000
  25.7938098   7.8871999 -12.3213224  25.8479449   8.1932837 -10.5962166
  24.1330000   6.4820000  -9.9480000  23.4356311   5.7690282  -9.7884760
  24.5205090   7.0004630  -9.1726732  25.0350000   7.8230000 -17.7710000
  24.5950000   8.7310000 -18.4920000  25.6310000   6.7360000 -18.2430000
  26.1311705   6.1137705 -17.6243246  25.6090000   6.4260000 -19.6590000
  25.6679389   7.3376965 -20.2535039  26.7740000   5.5170000 -20.0430000
  26.7234369   4.5958390 -19.4624779  26.7157675   5.2800233 -21.1053329
  27.7157132   6.0252464 -19.8357296  24.2950000   5.7560000 -19.9840000
  23.7220000   5.0370000 -19.1600000  23.7930000   6.0300000 -21.1690000
  24.2238158   6.7209437 -21.7665734  22.5690000   5.4020000 -21.6180000
  22.3611487   4.5341456 -20.9921200  21.3630000   6.3720000 -21.5360000
  20.4607674   5.8444636 -21.8454850  21.2341763   6.7461374 -20.5203595
  21.4840000   7.5850000 -22.4320000  20.6890000   7.7230000 -23.5500000
  19.9531655   6.9508218 -23.7744735  20.8150000   8.8230000 -24.3830000
  20.1756389   8.9076603 -25.2617211  21.7340000   9.7990000 -24.1090000
  21.8331049  10.6633747 -24.7656083  22.5320000   9.6850000 -23.0020000
  23.2618639  10.4618065 -22.7740296  22.4110000   8.5760000 -22.1670000
  23.0523085   8.4809789 -21.2907613  22.8060000   4.9040000 -23.0330000
  23.4460000   5.5810000 -23.8430000  22.3770000   3.6840000 -23.2980000
  22.2076373   3.0011007 -22.5733869  22.1380000   3.3010000 -24.6680000
  22.5446116   4.0150202 -25.3841993  22.5100861   2.3029856 -24.8995568
  20.6360000   3.3010000 -24.7750000  20.0370000   3.9670000 -25.6280000
  20.0320000   2.5600000 -23.8510000  20.6058847   1.9082377 -23.3352854
  18.6030000   2.6010000 -23.5630000  17.9789774   2.5837175 -24.4565302
  18.1940000   1.4260000 -22.6540000  17.9672452   1.8109813 -21.6597812
  16.9650000   0.7120000 -23.2160000  17.1911484   0.3263153 -24.2100851
  16.6924206  -0.1143772 -22.5595690  16.1337172   1.4141478 -23.2797099
  19.3740000   0.4510000 -22.4370000  20.2026822   0.9813905 -21.9678797
  19.0555373  -0.3677525 -21.7917670  19.6969212   0.0509658 -23.3981427
  18.2830000   3.9370000 -22.8980000  19.1970000   4.6330000 -22.4230000
  17.0250000   4.3630000 -22.8740000  16.0740000   4.2950000 -23.9970000
  15.5393071   3.3456866 -23.9652544  16.6159808   4.3748040 -24.9393307
  15.1720000   5.4750000 -23.7520000  14.1692783   5.2512363 -24.1161126
  15.5614492   6.3483784 -24.2751069  15.1800000   5.6920000 -22.2690000
  14.4870338   4.9933129 -21.8002428  14.9380532   6.7077698 -21.9563133
  16.6190000   5.3490000 -21.8650000  17.2765758   6.2149595 -21.9412006
  16.7050000   4.7660000 -20.4500000  16.4810000   3.5710000 -20.2270000
  17.0550000   5.6500000 -19.4820000  17.1374698   6.6119403 -19.7785955
  17.3600000   5.3250000 -18.0870000  17.7521370   4.3198222 -17.9322573
  18.3970000   6.3480000 -17.5580000  18.0547334   7.3479070 -17.8247185
  18.5710000   6.2580000 -16.0540000  18.9137195   5.2584456 -15.7865393
  19.3068956   6.9931370 -15.7282212  17.6176080   6.4576445 -15.5648299
  19.7400000   6.1860000 -18.2730000  19.6045488   6.3469368 -19.3425113
  20.4499699   6.9155410 -17.8833691  20.1235755   5.1799486 -18.1032024
  16.0730000   5.3470000 -17.2630000  15.1510000   6.0910000 -17.5980000
  15.9980000   4.5710000 -16.1660000  16.7743610   3.9630995 -15.9473223
  14.8050000   4.5120000 -15.3110000  13.9435210   4.9023383 -15.8528387
  14.5090000   3.0630000 -14.8970000  14.9367323   2.4184366 -15.6649078
  15.0225840   2.8905368 -13.9511734  13.0060000   2.7410000 -14.7330000
  12.5910614   3.4765240 -14.0438474  12.5414341   2.8585426 -15.7120119
  12.7250000   1.3140000 -14.1960000  12.4041478   0.6845734 -15.0260452
  13.6448822   0.9126274 -13.7707752  11.6810000   1.2970000 -13.1610000
  10.8121881   1.7628138 -13.3807335  11.8110000   0.7250000 -11.9640000
  12.9370000   0.0910000 -11.6440000  13.6937628   0.0442810 -12.3112536
  13.0293456  -0.3403777 -10.7354378  10.8060000   0.7780000 -11.0930000
   9.9495368   1.2513542 -11.3430134  10.9044372   0.3446234 -10.1860306
  14.9420000   5.4080000 -14.0630000  16.0390000   5.8460000 -13.7090000
  13.8050000   5.6720000 -13.3880000  12.9895830   5.1206897 -13.6143878
  13.6760000   6.7190000 -12.3650000  14.5290634   7.3974892 -12.3708599
  12.4020000   7.5340000 -12.5890000  11.6231047   7.1655899 -11.9213950
  12.6570000   9.0110000 -12.3060000  13.4355076   9.3802619 -12.9735861
  11.7398290   9.5765905 -12.4703287  12.9781473   9.1331095 -11.2715657
  11.9310000   7.3490000 -13.9320000  11.1314771   7.8636114 -14.0644329
  13.6300000   6.1750000 -10.9340000  13.1450000   5.0600000 -10.6870000
  14.0770000   7.0100000  -9.9770000  14.3763760   7.9448811 -10.2146357
  14.2380000   6.5590000  -8.5880000  13.4957502   5.7933649  -8.3622403
  15.6350000   5.9670000  -8.3680000  16.3312185   6.7062260  -8.7641362
  15.8645846   5.7777211  -7.3193988  15.7650000   4.6880000  -9.1480000
  16.4760000   4.6490000 -10.3440000  16.9767723   5.5543989 -10.6868985
  16.5540000   3.4890000 -11.0940000  17.1279352   3.4688706 -12.0204421
  15.8940000   2.3430000 -10.6590000  15.9740000   1.1730000 -11.4170000
  16.5056787   1.2752718 -12.2097534  15.1600000   2.3720000  -9.4730000
  14.6405949   1.4799239  -9.1229728  15.0940000   3.5430000  -8.7400000
  14.5067426   3.5792474  -7.8224408  13.9520000   7.6740000  -7.5880000
  14.7760000   8.5680000  -7.3880000  12.8130000   7.5650000  -6.9090000
  12.2700289   6.7611348  -7.1902162  12.2510000   8.4630000  -5.9010000
  11.4937001   7.9166323  -5.3387914  13.2910000   9.0320000  -4.9060000
  13.9288881   9.7440519  -5.4296230  12.5910000   9.7360000  -3.7390000
  11.9532446   9.0244176  -3.2145782  13.3385863  10.1293801  -3.0501851
  11.9824677  10.5557507  -4.1208348  14.1070000   7.9750000  -4.3930000
  14.7487680   8.3362703  -3.7771933  11.5100000   9.6290000  -6.5460000
  10.7270000  10.2990000  -5.8550000  11.7000000   9.8770000  -7.8490000
  12.0712199   9.1116317  -8.3935241  11.4620000  11.1510000  -8.5190000
  11.3786503  10.9546448  -9.5879231  10.1880000  11.8920000  -8.0520000
  10.2630855  12.0726683  -6.9797032  10.0992628  12.8441935  -8.5750231
   8.8890000  11.1530000  -8.2760000   8.8020000   9.7790000  -8.3820000
   7.5410000   9.4270000  -8.5680000   7.2674821   8.3776972  -8.6786819
   6.8020000  10.5210000  -8.5830000   5.8005767  10.5602370  -8.7083460
   7.6180000  11.6140000  -8.3990000   7.1898437  12.6161340  -8.3763957
  12.6920000  12.0310000  -8.2810000  12.6800000  13.2150000  -8.6640000
  13.7580000  11.4910000  -7.6630000  13.7325487  10.4958271  -7.4924639
  14.9150000  12.2540000  -7.1690000  14.6484248  13.3045500  -7.0533210
  15.3590000  11.7080000  -5.8060000  14.8784908  12.3405153  -5.0595856
  14.9530580  10.6984597  -5.7416615  16.8930000  11.6680000  -5.5420000
  17.3809207  12.2353132  -6.3345843  17.0732815  12.1548541  -4.5835790
  17.4670000  10.2350000  -5.5070000  16.8010000   9.3470000  -4.9230000
  18.5750000  10.0020000  -6.0630000  16.0440000  12.1880000  -8.2020000
  16.8950000  11.2850000  -8.1790000  16.0840000  13.1660000  -9.1090000
  15.3311978  13.8182587  -9.2761730  17.2120000  13.1570000 -10.0380000
  18.0386347  12.5065624  -9.7521587  16.7680000  12.7910000 -11.4900000
  17.4353239  12.0170876 -11.8692593  15.3420000  12.2890000 -11.5270000
  14.6739897  13.0625925 -11.1482946  15.0688708  12.0444475 -12.5534965
  15.2538315  11.3976081 -10.9059135  17.0000000  13.9070000 -12.4970000
  18.0620658  14.1495177 -12.5331021  16.6683293  13.5820069 -13.4831408
  16.4361062  14.7903992 -12.1974497  18.0040000  14.4680000  -9.9280000
  19.1440000  14.4690000  -9.4470000  17.4230000  15.6020000 -10.3190000
  16.4256800  15.7014061 -10.4437820  18.2790000  16.7110000 -10.7030000
  19.3065099  16.3698003 -10.8291163  17.8020000  17.3400000 -12.0290000
  17.6500565  18.4098961 -11.8863999  18.8490000  17.1160000 -13.1140000
  19.0011590  16.0462542 -13.2575008  18.5066373  17.5622379 -14.0476809
  19.7889440  17.5791052 -12.8137658  16.4770000  16.7530000 -12.5070000
  15.7082011  16.9299952 -11.7548544  16.1849635  17.2286915 -13.4432328
  16.5900594  15.6804284 -12.6648243  18.4350000  17.7840000  -9.6310000
  19.1190000  18.7800000  -9.8970000  17.8940000  17.5980000  -8.4220000
  17.4886790  16.7046297  -8.1817840  17.8460000  18.6790000  -7.4210000
  17.7148336  18.2332162  -6.4350125  19.1040000  19.5800000  -7.3930000
  19.3950263  19.8085471  -8.4182659  18.8210000  20.9030000  -6.6280000
  18.5303436  20.6752642  -5.6024490  19.7200425  21.5192672  -6.6219655
  18.0138585  21.4436213  -7.1223195  20.2040000  18.9090000  -6.7600000
  20.9708494  19.4865072  -6.7547265  16.6360000  19.5690000  -7.6950000
  16.4870000  20.0750000  -8.8130000  15.8280000  19.8350000  -6.6610000
  16.1661103  19.7167390  -5.7166510  14.4300000  20.2230000  -6.8540000
  13.8733256  19.4212032  -7.3391131  13.8020000  20.4980000  -5.4950000
  14.0468155  19.6139975  -4.9061841  14.2682086  21.3743719  -5.0447536
  12.2890000  20.6860000  -5.5240000  12.0774320  21.6198590  -6.0448140
  11.5640000  19.5320000  -6.2290000  11.7747306  18.5978074  -5.7084469
  10.4899825  19.7177826  -6.2205191  11.9115312  19.4594670  -7.2595637
  11.7850000  20.8570000  -4.1060000  12.2548265  21.7314768  -3.6558301
  10.7034646  20.9920445  -4.1180613  12.0334814  19.9707171  -3.5221690
  14.2710000  21.4290000  -7.7810000  13.4630000  21.4030000  -8.7200000
  15.0110000  22.5100000  -7.5170000  15.6747467  22.5137330  -6.7557341
  14.8380000  23.7330000  -8.2880000  13.8054586  24.0748211  -8.2164757
  15.7520000  24.8280000  -7.7500000  16.7637122  24.4455692  -7.6147802
  15.7719003  25.6701572  -8.4417191  15.3270000  25.3630000  -6.4480000
  14.3340000  24.8870000  -5.6600000  13.7874451  24.0179230  -6.0261730
  14.2330000  25.6460000  -4.5160000  13.5617185  25.5052746  -3.7745979
  15.1780000  26.6370000  -4.5560000  15.4530000  27.6480000  -3.6520000
  14.8584224  27.7160825  -2.7409891  16.4650000  28.5040000  -3.9670000
  16.7156818  29.3099411  -3.2772772  17.1910000  28.3770000  -5.1510000
  17.9965684  29.0721293  -5.3875465  16.9190000  27.3880000  -6.0430000
  17.5213551  27.3308261  -6.9496422  15.8870000  26.4920000  -5.7580000
  15.1070000  23.5340000  -9.7760000  14.5570000  24.2780000 -10.5920000
  15.9640000  22.5830000 -10.1520000  16.4127105  22.0220056  -9.4420397
  16.3640000  22.3890000 -11.5430000  15.9516156  23.1795374 -12.1699680
  17.8940000  22.4320000 -11.6430000  18.3839551  21.5728096 -11.1849224
  18.1187000  22.4518621 -12.7094030  18.4000000  23.7050000 -10.9970000
  18.4440000  24.8940000 -11.7070000  18.1517360  24.8919278 -12.7570843
  18.8500000  26.0700000 -11.1050000  18.8944993  26.9916799 -11.6851963
  19.2070000  26.0760000  -9.7700000  19.6170000  27.2350000  -9.1560000
  19.6203909  27.9915857  -9.7469029  19.1480000  24.9190000  -9.0370000
  19.4178393  24.9194905  -7.9809285  18.7410000  23.7410000  -9.6490000
  18.6834801  22.8184139  -9.0713960  15.7840000  21.1080000 -12.1310000
  16.1980000  20.6800000 -13.2130000  14.8020000  20.5180000 -11.4470000
  14.4881878  20.9620070 -10.5958367  14.1880000  19.2550000 -11.8340000
  14.9378797  18.5828642 -12.2511487  13.5670000  18.5920000 -10.6080000
  14.3173006  18.6127012  -9.8176079  12.7121638  19.2004523 -10.3128038
  13.1200000  17.1800000 -10.8350000  12.2625445  17.1655969 -11.5078027
  13.9327231  16.5987211 -11.2705434  12.7300000  16.5830000  -9.5160000
  11.9024084  17.1547804  -9.0961688  12.4162851  15.5505895  -9.6703079
  13.8360000  16.5980000  -8.5680000  14.7345256  16.9018663  -8.9150107
  13.7370000  16.2410000  -7.2930000  12.5770000  15.8480000  -6.7980000
  11.7613169  15.8190817  -7.3929159  12.5111538  15.5782645  -5.8269147
  14.8030000  16.2780000  -6.5100000  15.6912597  16.5784442  -6.8852707
  14.7235072  16.0056260  -5.5406745  13.1290000  19.4800000 -12.9130000
  12.2880000  20.3790000 -12.8010000  13.1680000  18.6550000 -13.9470000
  13.8631678  17.9240293 -13.9972280  12.2450000  18.8060000 -15.0600000
  12.1941783  19.8568601 -15.3449727  12.7270000  17.9960000 -16.2640000
  12.7743306  16.9402922 -15.9969028  12.0329371  18.1295465 -17.0937845
  13.7178166  18.3399273 -16.5608093  10.8330000  18.3650000 -14.6630000
  10.6620000  17.4610000 -13.8370000   9.7970000  18.9810000 -15.2530000
   9.8040000  19.8310000 -16.4560000  10.5036938  19.4289015 -17.1886975
  10.1004383  20.8456243 -16.1899908   8.3410000  19.7520000 -16.9300000
   8.2046638  18.9011278 -17.5974789   8.0614173  20.6687814 -17.4490826
   7.5620000  19.5920000 -15.6870000   6.5956803  19.1347321 -15.8996766
   7.4105232  20.5225095 -15.1399109   8.4230000  18.6300000 -14.8560000
   8.3269344  18.8152794 -13.7861677   8.0790000  17.1860000 -15.1500000
   7.3070000  16.5860000 -14.3970000   8.6300000  16.6000000 -16.2180000
   9.1801894  17.1096927 -16.8944646   8.3470000  15.1950000 -16.4760000
   7.2689224  15.0350156 -16.4919001   8.9260000  14.7630000 -17.8270000
   8.5407296  13.7620997 -18.0215883   8.5278643  15.4555413 -18.5686027
  10.4340000  14.7470000 -17.9120000  10.8170755  14.6022691 -16.9018480
  10.7303043  13.9042804 -18.5366012  11.0000000  16.0210000 -18.4860000
  10.3860000  17.0870000 -18.2580000  12.0530000  15.9520000 -19.1710000
   8.8600000  14.3190000 -15.3390000   8.2150000  13.3210000 -14.9920000
   9.9880000  14.6950000 -14.7200000  10.5899925  15.4005434 -15.1198912
  10.4190000  14.0320000 -13.4870000  10.4398302  12.9509556 -13.6248709
  11.8140000  14.5210000 -13.0540000  11.7716898  15.5922022 -12.8569314
  12.2580000  13.7940000 -11.8000000  12.3009989  12.7227090 -11.9964364
  13.2453684  14.1485413 -11.5041877  11.5473269  13.9872844 -10.9964553
  12.8290000  14.3090000 -14.1710000  12.4833622  14.8592909 -15.0461087
  13.7829235  14.7183280 -13.8384642  13.0000000  12.8870000 -14.5210000
  12.0465290  12.4770716 -14.8540940  13.7339794  12.7950549 -15.3215745
  13.3460883  12.3361080 -13.6464482   9.3960000  14.2470000 -12.3780000
   8.9560000  13.2940000 -11.7270000   9.0050000  15.5060000 -12.1460000
   9.3979086  16.2738276 -12.6715121   8.0610000  15.8120000 -11.0730000
   8.4351497  15.4304183 -10.1229965   7.8850000  17.3270000 -10.9560000
   7.5819635  17.6177628 -11.9618455   7.0733038  17.5337822 -10.2585113
   9.1200000  18.1220000 -10.5480000   9.9959710  17.6732924 -11.0164412
   9.0000000  19.5830000 -10.9860000   8.1244556  20.0325434 -10.5175649
   9.8938131  20.1282961 -10.6829305   8.8961161  19.6305143 -12.0699977
   9.3160000  17.9910000  -9.0500000   9.4521364  16.9409300  -8.7913123
  10.1974515  18.5563966  -8.7475580   8.4394951  18.3813774  -8.5328505
   6.7130000  15.1170000 -11.2860000   6.0580000  14.7000000 -10.3200000
   6.2750000  14.9880000 -12.5350000   6.7787726  15.4027655 -13.3058969
   5.0180000  14.3100000 -12.8170000   4.3129676  14.4798450 -12.0032549
   4.4080000  14.8470000 -14.1120000   5.2367805  14.8374586 -14.8199062
   3.6192898  14.1840968 -14.4678027   3.8610000  16.2680000 -13.9880000
   4.6076718  16.8906398 -13.4951495   3.5440000  16.8460000 -15.3580000
   2.7970052  16.2241126 -15.8513089   3.1559748  17.8582985 -15.2449117
   4.4514277  16.8705682 -15.9613836   2.6380000  16.3010000 -13.0740000
   2.9152710  15.9439658 -12.0821599   2.2659056  17.3229078 -13.0008464
   1.8586734  15.6597129 -13.4857037   5.1770000  12.8000000 -12.8980000
   4.1870000  12.0990000 -13.1440000   6.3930000  12.2900000 -12.7130000
   7.2003016  12.8967712 -12.7268647   6.6020000  10.8730000 -12.4890000
   7.5129487  10.7792781 -11.8978250   5.7525363  10.5184588 -11.9052095
   6.7330000  10.0240000 -13.7320000   6.2040000   8.9080000 -13.7720000
   7.4260000  10.5150000 -14.7550000   7.7947145  11.4552916 -14.7558304
   7.6290000   9.6920000 -15.9410000   6.6714276   9.2924094 -16.2748886
   8.2400000  10.5070000 -17.0770000   8.2581207   9.9422379 -18.0091023
   7.7035011  11.4433297 -17.2304784   9.9530000  10.9620000 -16.7340000
  10.1510364  11.6244886 -17.8701288   8.5320000   8.5110000 -15.5910000
   9.2410000   8.5190000 -14.5760000   8.5000000   7.4770000 -16.4440000
   7.9238067   7.4846711 -17.2734829   9.2500000   6.2590000 -16.1310000
   9.2268501   6.0762112 -15.0566856   8.6310000   5.0480000 -16.8490000
   7.5886625   5.3018355 -17.0418714   9.1606902   4.9454836 -17.7961107
   8.7010000   3.7080000 -16.0700000   9.7508958   3.4521193 -15.9273649
   8.2280263   3.8541860 -15.0989039   7.9880000   2.5590000 -16.8230000
   6.9658093   2.8794630 -17.0243170   8.5125797   2.4057576 -17.7660972
   7.9650000   1.2390000 -16.0280000   7.4529536   1.4505289 -15.0892964
   7.3739373   0.5342788 -16.6129036   9.3190000   0.6400000 -15.7380000
   9.8666957   1.2926798 -15.1956548   9.2032145  -0.2171756 -15.2165177
   9.7934665   0.4435221 -16.6076994  10.7360000   6.3870000 -16.4750000
  11.5810000   5.8230000 -15.7630000  11.0760000   7.1630000 -17.5140000
  10.3487985   7.7009067 -17.9633703  12.4370000   7.2430000 -18.0570000
  13.1534713   6.8560317 -17.3324149  12.5360000   6.4020000 -19.3450000
  11.8232676   6.7997227 -20.0674461  13.5478350   6.5125852 -19.7349497
  12.2470000   4.9430000 -19.1060000  13.0510000   4.2020000 -18.2300000
  13.8856403   4.7039838 -17.7406256  12.8080000   2.8740000 -17.9820000
  13.4365759   2.3094588 -17.2933147  11.7410000   2.2520000 -18.6170000
  11.5130000   0.9120000 -18.3560000  12.1439172   0.5378321 -17.7366927
  10.9240000   2.9640000 -19.5020000  10.0910244   2.4725006 -20.0046734
  11.1810000   4.3040000 -19.7370000  10.5471260   4.8687906 -20.4206048
  12.8580000   8.6800000 -18.3590000  12.1010000   9.4100000 -19.0080000
  14.0620000   9.0870000 -17.9070000  14.5880243   8.5578763 -17.2262461
  14.6420000  10.3250000 -18.4200000  13.8325808  11.0478654 -18.5220070
  15.7480000  10.9440000 -17.5390000  16.6417314  10.9777276 -18.1620617
  15.3479940  11.9513538 -17.4235292  16.1010000  10.3860000 -16.1850000
  17.3470000   9.8340000 -15.9460000  18.0629862   9.7822485 -16.7662347
  17.6960000   9.3470000 -14.6800000  18.6743788   8.8986827 -14.5071177
  16.7800000   9.4430000 -13.6360000  17.0750000   8.9710000 -12.3660000
  17.9526169   8.5870466 -12.3030076  15.5460000  10.0180000 -13.8660000
  14.8228287  10.0993407 -13.0545153  15.2260000  10.4930000 -15.1320000
  14.2594962  10.9649175 -15.3088177  15.2870000  10.0940000 -19.7760000
  15.5860000   8.9700000 -20.1890000  15.5410000  11.1980000 -20.4590000
  14.9551346  12.0187016 -20.4014679  16.6340000  11.1990000 -21.4120000
  17.4007337  10.4965329 -21.0852607  16.1530000  10.7850000 -22.8100000
  15.4553663   9.9520088 -22.7232123  15.6538682  11.6279968 -23.2878325
  17.2720000  10.3870000 -23.5980000  16.9717781  10.1280194 -24.4722973
  17.2840000  12.5780000 -21.3750000  17.0820000  13.3450000 -20.4270000
  18.0550000  12.8950000 -22.4180000  18.1807750  12.2235191 -23.1619042
  18.7780000  14.1530000 -22.4960000  19.5757268  14.2063090 -21.7551293
  19.3930000  14.2890000 -23.8850000  19.7462977  15.3117380 -24.0164838
  20.5580000  13.3250000 -24.0520000  20.2053639  12.3019585 -23.9211049
  20.9831764  13.4374004 -25.0493416  21.3213505  13.5439674 -23.3053743
  18.3940000  14.0290000 -24.8780000  18.7816854  14.1147505 -25.7520408
  17.9290000  15.3850000 -22.1890000  18.4930000  16.4340000 -21.8480000
  16.6010000  15.3090000 -22.2940000  16.1128250  14.4639754 -22.5542267
  15.8220000  16.5280000 -22.1070000  16.2454355  17.2840630 -22.7681886
  14.3640000  16.2950000 -22.5020000  13.9235821  15.5468329 -21.8429263
  13.8091203  17.2289302 -22.4126514  14.3180408  15.9428351 -23.5325178
  15.9040000  17.0680000 -20.6810000  15.6760000  18.2630000 -20.4880000
  16.2260000  16.2380000 -19.6790000  16.3796600  15.2506852 -19.8263004
  16.2560000  16.7480000 -18.3070000  15.4297340  17.4228708 -18.0835428
  16.2360000  15.5910000 -17.2890000  16.1961679  16.0028803 -16.2806016
  15.0230000  14.7080000 -17.5230000  15.0623704  14.2953572 -18.5311056
  15.0199418  13.8942948 -16.7977586  14.1147330  15.2996139 -17.4083457
  17.5180000  14.8020000 -17.3390000  18.3575497  15.4567574 -17.1054382
  17.4756364  13.9924160 -16.6103857  17.6499074  14.3850240 -18.3374149
  17.4520000  17.6710000 -18.0720000  17.3580000  18.6320000 -17.2950000
  18.5780000  17.4210000 -18.7450000  18.6802087  16.5854442 -19.3031212
  19.7170000  18.3280000 -18.6420000  19.9422340  18.5222200 -17.5933593
  20.9520000  17.7090000 -19.3010000  20.6195765  17.2950878 -20.2529824
  21.6831596  18.4965677 -19.4833257  21.5920000  16.6050000 -18.4620000
  21.4090000  16.5810000 -17.2180000  22.3100000  15.7690000 -19.0650000
  19.4110000  19.6850000 -19.2740000  19.8180000  20.7260000 -18.7370000
  18.7100000  19.6910000 -20.4220000  18.4505822  18.8206353 -20.8638902
  18.3740000  20.9420000 -21.1030000  19.2595815  21.5640403 -21.2330405
  17.7370000  20.6660000 -22.4730000  16.9755017  19.8945720 -22.3584590
  17.1030000  21.9210000 -23.0320000  17.8640222  22.6927900 -23.1472649
  16.6579395  21.7024732 -24.0027049  16.3296704  22.2730979 -22.3492939
  18.7950000  20.1190000 -23.4260000  19.2165820  19.2300567 -22.9567995
  18.2800777  19.8352205 -24.3438364  19.9100000  21.0950000 -23.7530000
  20.4257159  21.3788992 -22.8356461  20.6171141  20.6240953 -24.4358892
  19.4892108  21.9840646 -24.2226813  17.4630000  21.7810000 -20.2320000
  17.6450000  22.9980000 -20.1180000  16.4760000  21.1440000 -19.5910000
  16.2589820  20.1771507 -19.7864610  15.6420000  21.8600000 -18.6300000
  15.0793688  22.6392192 -19.1441622  14.6510000  20.9090000 -17.9480000
  13.9911531  20.4232185 -18.6668307  15.1957295  20.1507624 -17.3854650
  13.7590000  21.6260000 -16.9570000  14.0210000  21.8600000 -15.6420000
  14.9665136  21.4797828 -15.2552977  12.9840000  22.5580000 -15.0660000
  12.9319299  22.8368186 -14.0966454  12.0260000  22.7960000 -16.0140000
  10.8000000  23.4510000 -15.9080000  10.5161690  23.8648793 -14.9404037
  10.0220000  23.5340000 -17.0370000   9.0599161  24.0439589 -16.9876398
  10.4330000  22.9800000 -18.2510000   9.8102427  23.0506613 -19.1427846
  11.6530000  22.3200000 -18.3570000  11.9247829  21.8918452 -19.3218410
  12.4720000  22.2240000 -17.2190000  16.5010000  22.5650000 -17.5850000
  16.3140000  23.7550000 -17.3110000  17.4470000  21.8460000 -16.9810000
  17.5523439  20.8558613 -17.1501960  18.3210000  22.4760000 -16.0000000
  17.7360468  22.8322954 -15.1520716  19.3510000  21.4650000 -15.4930000
  19.8055999  20.9559553 -16.3428892  20.1226479  21.9883160 -14.9283764
  18.7190000  20.5150000 -14.6580000  19.3694057  19.8832186 -14.3426834
  19.0050000  23.6950000 -16.5980000  18.9060000  24.8050000 -16.0630000
  19.7000000  23.5070000 -17.7250000  19.8038628  22.5902330 -18.1359138
  20.3750000  24.6310000 -18.3630000  21.1539597  25.0125360 -17.7028855
  21.0180000  24.2030000 -19.6800000  20.2999713  23.5052852 -20.1109618
  21.0902543  25.0868890 -20.3137346  22.3830000  23.5330000 -19.5860000
  22.2527980  22.4673778 -19.3973264  23.1320000  23.7270000 -20.8880000
  23.2630003  24.7924420 -21.0771327  24.1086392  23.2476608 -20.8208393
  22.5641734  23.2807159 -21.7043969  23.1600000  24.1090000 -18.4160000
  22.6089757  23.9341952 -17.4919248  24.1352013  23.6260761 -18.3538061
  23.2945311  25.1809067 -18.5609700  19.4100000  25.7750000 -18.6090000
  19.7640000  26.9410000 -18.4290000  18.1820000  25.4670000 -19.0210000
  17.8986905  24.5133122 -19.1951111  17.2090000  26.5230000 -19.2310000
  17.6015938  27.2118751 -19.9789441  16.2859747  26.0751776 -19.5992101
  16.9100000  27.2950000 -17.9560000  16.7750000  28.5260000 -17.9740000
  16.8040000  26.5830000 -16.8250000  16.8483556  25.5739750 -16.8256826
  16.5650000  27.2640000 -15.5570000  15.7270682  27.9536947 -15.6584432
  16.2330000  26.2510000 -14.4670000  17.0224044  25.5010756 -14.4164707
  16.1567528  26.7627249 -13.5076127  14.7190000  25.3570000 -14.6680000
  14.8348034  24.6357923 -13.5565382  17.7710000  28.0950000 -15.1520000
  17.6210000  29.1760000 -14.5710000  18.9790000  27.6030000 -15.4450000
  19.0680335  26.6756762 -15.8351831  20.2010000  28.3370000 -15.1150000
  20.1956283  28.7967255 -14.1267071  21.4140000  27.3820000 -15.2330000
  21.3322575  26.8392372 -16.1747150  22.7490000  28.1460000 -15.1960000
  22.8316769  28.6886765 -14.2543167  23.5748659  27.4397863 -15.2814895
  22.7875656  28.8515540 -16.0259430  21.3370000  26.2780000 -14.1480000
  21.5282263  26.7641797 -13.1913587  20.3168792  25.8942763 -14.1624620
  22.3150000  25.1260000 -14.3360000  23.3354213  25.5089109 -14.3211832
  22.1865375  24.4043240 -13.5292904  22.1240754  24.6390087 -15.2922882
  20.3290000  29.5840000 -15.9980000  20.6630000  30.6720000 -15.5190000
  20.0250000  29.4460000 -17.2910000  19.8880001  28.5132466 -17.6533554
  19.9450000  30.5720000 -18.2240000  20.9298446  31.0075803 -18.3926717
  19.4010000  30.0490000 -19.5680000  20.0386825  29.2426546 -19.9303084
  18.3893994  29.6719245 -19.4177391  19.3210000  31.0730000 -20.6830000
  19.9820000  32.2890000 -20.6160000  20.5789755  32.5182700 -19.7333022
  19.8920000  33.2140000 -21.6570000  20.4153127  34.1676457 -21.5876864
  19.1420000  32.9210000 -22.7710000  19.0615106  33.6367709 -23.5891035
  18.4810000  31.6960000 -22.8490000  17.8901480  31.4525190 -23.7320125
  18.5740000  30.7920000 -21.8100000  18.0524648  29.8367743 -21.8703716
  19.0780000  31.7010000 -17.6700000  19.5160000  32.8550000 -17.5960000
  17.8260000  31.3940000 -17.2960000  17.4480964  30.4644773 -17.4112206
  16.9540000  32.4350000 -16.7470000  16.8849291  33.2509858 -17.4663717
  15.5540000  31.8910000 -16.4920000  15.6056787  31.0790696 -15.7666047
  14.9199912  32.6868691 -16.1011988  15.1332449  31.5172902 -17.4254909
  17.5250000  33.0010000 -15.4560000  17.4100000  34.2090000 -15.1880000
  18.1420000  32.1290000 -14.6440000  18.1639041  31.1464171 -14.8767024
  18.7110000  32.5500000 -13.3710000  17.9608700  33.0825171 -12.7863380
  19.1820000  31.3230000 -12.5670000  18.3273607  30.6498427 -12.4995456
  19.9698835  30.8513392 -13.1542611  19.7110000  31.6280000 -11.1460000
  20.7151025  32.0332510 -11.2711026  19.0640377  32.3895510 -10.7105932
  19.7640000  30.4090000 -10.2150000  19.2450000  29.3280000 -10.5830000
  20.3210000  30.5440000  -9.0970000  19.8390000  33.5520000 -13.5940000
  19.9180000  34.5690000 -12.8970000  20.6980000  33.3080000 -14.5920000
  20.6977357  32.4322090 -15.0950800  21.7100000  34.3030000 -14.9350000
  22.3079493  34.5360701 -14.0539585  22.6360000  33.7800000 -16.0280000
  22.0018824  33.3373923 -16.7961748  23.1580634  34.6429516 -16.4413576
  23.6380000  32.7660000 -15.5620000  24.1857801  33.1843059 -14.7175724
  23.1019688  31.8730995 -15.2402839  24.8060000  32.3200000 -16.8650000
  23.8560000  31.2430000 -17.9590000  22.9961281  31.7876653 -18.3489475
  24.4860401  30.9186257 -18.7872098  23.5114401  30.3715289 -17.4022974
  21.0710000  35.6150000 -15.3780000  21.5720000  36.6950000 -15.0500000
  19.9690000  35.5450000 -16.1310000  19.5804030  34.6550699 -16.4086979
  19.3470000  36.7650000 -16.6470000  20.0891159  37.4671833 -17.0268707
  18.3500000  36.4420000 -17.7780000  17.6926813  35.6356870 -17.4525915
  17.5170000  37.6690000 -18.1180000  18.1736359  38.4756485 -18.4439577
  16.8183388  37.4241860 -18.9180245  16.9614231  37.9874286 -17.2359347
  19.0830000  35.9390000 -19.0000000  19.6358820  35.0346062 -18.7460406
  18.3647266  35.7156591 -19.7888610  19.7778633  36.7034027 -19.3477849
  18.6730000  37.5390000 -15.5230000  18.7950000  38.7660000 -15.4430000
  17.9450000  36.8410000 -14.6440000  17.9070500  35.8337134 -14.7075040
  17.1360000  37.5000000 -13.6270000  16.9570057  38.5358785 -13.9151248
  15.7800000  36.7880000 -13.4850000  15.1283508  37.3979636 -12.8593820
  15.1320000  36.5810000 -14.8360000  15.7829000  35.9706913 -15.4620607
  14.1748611  36.0757192 -14.7068665  14.9706184  37.5472112 -15.3140088
  15.9680000  35.5080000 -12.8780000  15.1195732  35.0672543 -12.7913083
  17.8170000  37.5800000 -12.2640000  17.3730000  38.3570000 -11.4160000
  18.8780000  36.8100000 -12.0340000  19.1427136  36.1324318 -12.7346621
  19.6130000  36.8200000 -10.7620000  20.4298875  36.0994945 -10.8028143
  20.1990000  38.2100000 -10.4890000  19.5006197  38.9539802 -10.8722202
  20.3007428  38.3295498  -9.4103637  21.5800000  38.4040000 -11.1620000
  22.3194805  38.5998828 -10.3855341  21.8410756  37.4859016 -11.6883431
  21.5590000  39.5720000 -12.1530000  22.5641550  39.7517001 -12.5344058
  20.8918305  39.3407166 -12.9833567  21.0830000  40.7890000 -11.4940000
  21.6472658  41.1366678 -10.7318776  19.9660000  41.4380000 -11.8030000
  19.2070000  41.0050000 -12.8000000  19.4816345  40.1837677 -13.3198591
  18.3576292  41.4983523 -13.0351008  19.6270000  42.5400000 -11.1330000
  20.2219517  42.8790272 -10.3905762  18.7768415  43.0305816 -11.3710313
  18.7580000  36.3310000  -9.5890000  18.9120000  36.7910000  -8.4510000
  17.8820000  35.3680000  -9.8760000  17.8721865  35.0642184 -10.8391821
  16.9540000  34.7440000  -8.9470000  17.4369373  34.6325552  -7.9762009
  15.6700000  35.5950000  -8.7670000  15.9743972  36.4748712  -8.2001947
  15.3704626  35.8958803  -9.7709166  14.4700000  34.9070000  -8.0520000
  13.5780782  35.5153830  -8.2018213  14.3165158  33.9229028  -8.4948288
  14.7400000  34.7540000  -6.5400000  15.5606713  34.0437814  -6.4390686
  15.0596266  35.7314888  -6.1788160  13.6100000  34.2910000  -5.7130000
  12.7285646  34.7700802  -5.8298470  13.6750000  33.2760000  -4.8420000
  14.8120000  32.5950000  -4.6860000  15.6263799  32.8470028  -5.2276456
  14.8529429  31.8307052  -4.0270032  12.6070000  32.9520000  -4.1100000
  11.7492135  33.4747784  -4.2149054  12.6614949  32.1855282  -3.4545231
  16.6450000  33.3930000  -9.5660000  16.4640000  33.3160000 -10.7790000
  16.6180000  32.3340000  -8.7660000  16.8961098  32.3688341  -7.7956697
  16.2030000  31.0540000  -9.3190000  16.9004156  30.7342216 -10.0932432
  16.1500000  29.9820000  -8.2390000  15.4487713  30.2837156  -7.4609601
  15.8218931  29.0395996  -8.6775517  17.1413399  29.8541831  -7.8042503
  14.8380000  31.2100000  -9.9680000  13.9850000  31.9570000  -9.4840000
  14.6370000  30.5160000 -11.0870000  15.3588626  29.9231043 -11.4710422
  13.3810000  30.6460000 -11.8250000  13.1052624  31.6973257 -11.9073544
  13.5340000  30.0670000 -13.2380000  14.3283261  30.6789159 -13.6654392
  13.8977880  29.0497829 -13.0929908  12.3310000  30.0490000 -14.1940000
  11.5019926  29.5141957 -13.7305003  11.9190000  31.4440000 -14.4830000
  12.7473971  31.9793418 -14.9469678  11.0655588  31.4382841 -15.1610164
  11.6407953  31.9411534 -13.5537309  12.6560000  29.3310000 -15.4830000
  12.9371579  28.3007564 -15.2647163  11.7817800  29.3383539 -16.1339889
  13.4838666  29.8351531 -15.9815635  12.2390000  29.9620000 -11.0910000
  11.1500000  30.5170000 -10.9730000  12.4730000  28.7580000 -10.5960000
  13.4196653  28.4086098 -10.6390189  11.4450000  27.9020000 -10.0100000
  10.5228716  28.4691851  -9.8831955  11.1610000  26.7050000 -10.9130000
  12.0815814  26.1407997 -11.0623558  10.4059914  26.0564078 -10.4687138
  10.6620000  27.0740000 -12.2690000   9.6190000  27.9790000 -12.4170000
   9.1783055  28.4318649 -11.5288550   9.1340000  28.3110000 -13.6840000
   8.3147403  29.0228101 -13.7851958   9.6890000  27.7410000 -14.8010000
   9.3155462  27.9968363 -15.7925543  10.7350000  26.8310000 -14.6640000
  11.1751215  26.3737793 -15.5501955  11.2170000  26.5060000 -13.4030000
  12.0393335  25.7980536 -13.2996592  11.9250000  27.4210000  -8.6490000
  12.3460000  26.2680000  -8.4960000  11.8800000  28.2760000  -7.6360000
  11.4850000  29.6940000  -7.7080000  10.4156219  29.7641783  -7.9070119
  12.0362741  30.1850150  -8.5099353  11.8570000  30.2250000  -6.3450000
  10.9620112  30.2709824  -5.7245327  12.2743256  31.2259653  -6.4545866
  12.8750000  29.2790000  -5.7710000  12.8207348  29.2726794  -4.6823704
  13.8951950  29.5037431  -6.0821146  12.4490000  27.9130000  -6.3220000
  13.3043158  27.2618559  -6.5024008  11.4510000  27.2010000  -5.4060000
  11.1260000  27.6790000  -4.3190000  10.9750000  26.0310000  -5.8320000
  11.3040339  25.6053761  -6.6867984   9.9540000  25.3320000  -5.0600000
   9.1656924  26.0448917  -4.8182240   9.5450567  24.5361911  -5.6825375
  10.4870000  24.7270000  -3.7700000  11.6590000  24.3690000  -3.6490000
   9.6080000  24.6060000  -2.7750000   8.6929768  25.0304335  -2.8268468
   9.9950000  23.9450000  -1.5320000  11.0719246  23.7767111  -1.5353861
   9.6340000  24.7940000  -0.3010000  10.0140674  24.2704466   0.5762342
  10.1489797  25.7490349  -0.4049437   8.1490000  25.0370000  -0.1390000
   7.3090000  24.3890000  -0.8090000   7.8200000  25.9090000   0.6910000
   9.4160000  22.5440000  -1.3890000   9.6620000  21.8900000  -0.3750000
   8.6840000  22.0530000  -2.3780000   8.4049766  22.6474752  -3.1453620
   8.2470000  20.6670000  -2.3860000   9.0294701  20.0495102  -1.9449262
   6.9530000  20.4560000  -1.5950000   6.7684516  19.3851427  -1.5095267
   7.0801455  20.8827968  -0.6001239   5.8500000  21.0760000  -2.2380000
   5.0542226  20.9281626  -1.7217808   8.0400000  20.2900000  -3.8320000
   8.0530000  21.1440000  -4.7170000   7.8290000  19.0070000  -4.0770000
   7.8802731  18.2905957  -3.3669048   7.6020000  18.5970000  -5.4570000
   8.4048085  18.9684870  -6.0938635   7.5700000  17.0740000  -5.5510000
   6.6876943  16.7320120  -5.0100008   7.4727072  16.8139643  -6.6050472
   8.8040000  16.4060000  -4.9780000   9.6694097  16.9063268  -5.4125572
   8.8183056  16.5312043  -3.8953096   8.8520000  14.9300000  -5.3160000
   9.0890000  14.6070000  -6.5020000   8.6240000  14.0930000  -4.4080000
   6.3240000  19.2230000  -6.0130000   6.2890000  19.6790000  -7.1650000
   5.2600000  19.2690000  -5.2110000   5.2344388  18.8496307  -4.2925364
   4.0360000  19.8520000  -5.7370000   3.8544626  19.5407743  -6.7657283
   2.8270000  19.4660000  -4.8630000   2.7795443  18.3792826  -4.7930460
   2.9470000  20.0500000  -3.4880000   2.9940453  21.1367892  -3.5571125
   2.0803472  19.7614515  -2.8932283   3.8540082  19.6771088  -3.0121980
   1.5230000  19.9120000  -5.5360000   0.7084157  19.6352639  -4.8666941
   1.5660361  20.9974510  -5.6256862   1.2810000  19.2960000  -6.9150000
   1.2373760  18.2105124  -6.8260418   0.3379323  19.6651983  -7.3180077
   2.0949983  19.5726978  -7.5850336   4.2030000  21.3610000  -5.8830000
   3.7500000  21.9560000  -6.8710000   4.8960000  21.9970000  -4.9260000
   5.2069629  21.5109247  -4.0970656   5.1650000  23.4310000  -5.0310000
   4.2304727  23.9677492  -5.1942736   5.8150000  23.9590000  -3.7490000
   5.1567368  23.7120392  -2.9160539   6.7704652  23.4506775  -3.6194067
   6.0430000  25.4690000  -3.7870000   5.0450000  26.2110000  -3.9660000
   7.2140000  25.9170000  -3.6430000   6.0480000  23.7350000  -6.2290000
   5.8280000  24.7310000  -6.9280000   7.0520000  22.8880000  -6.4850000
   7.2897955  22.1520176  -5.8354751   7.8710000  23.0450000  -7.6830000
   8.3637639  24.0171710  -7.6700990   8.9440000  21.9530000  -7.7420000
   9.4514312  21.9497550  -6.7773227   8.4276490  21.0035531  -7.8835354
   9.9880000  22.1480000  -8.8750000  10.6153976  21.2575531  -8.9147156
   9.4652244  22.2661139  -9.8241348  10.8820000  23.3650000  -8.6560000
  11.1270000  23.7670000  -7.5210000  11.3580000  23.9570000  -9.7390000
  11.9546833  24.7667222  -9.6472367  11.1225479  23.5965370 -10.6526357
   7.0070000  23.0140000  -8.9360000   7.1120000  23.8910000  -9.8010000
   6.1300000  22.0120000  -9.0450000   6.1007157  21.2668452  -8.3638348
   5.2280000  21.9390000 -10.1890000   5.8011794  21.8274210 -11.1093883
   4.2970000  20.7390000 -10.0460000   4.1947388  20.6041808  -8.9692151
   3.3282920  20.9990546 -10.4727042   4.7970000  19.4450000 -10.6740000
   5.7154135  19.1385900 -10.1732702   3.7520000  18.3480000 -10.5320000
   2.8333887  18.6535114 -11.0329140   4.1245469  17.4296519 -10.9858130
   3.5484653  18.1739384  -9.4754128   5.1420000  19.6880000 -12.1320000
   5.9203158  20.4480715 -12.1999357   5.4997660  18.7612447 -12.5805860
   4.2540242  20.0294372 -12.6639948   4.4210000  23.2210000 -10.3370000
   4.3510000  23.7960000 -11.4300000   3.7980000  23.6840000  -9.2410000
   3.8964086  23.2218933  -8.3483228   2.9050000  24.8410000  -9.3290000
   2.1550971  24.6618502 -10.0994870   2.1910000  25.0930000  -8.0020000
   2.8954318  25.0076825  -7.1745968   1.7442641  26.0872349  -7.9971017
   1.0820000  24.1230000  -7.7230000   0.7830000  23.1070000  -8.6290000
   1.3610166  23.0217038  -9.5491746  -0.2460000  22.2040000  -8.3660000
  -0.4721210  21.4104707  -9.0782368  -0.9800000  22.3160000  -7.2000000
  -1.7844613  21.6103241  -6.9927236  -0.6930000  23.3260000  -6.2940000
  -1.2721251  23.4178180  -5.3751509   0.3330000  24.2200000  -6.5590000
   0.5613996  25.0138583  -5.8478583   3.6590000  26.0880000  -9.7520000
   3.1460000  26.9010000 -10.5330000   4.8730000  26.2710000  -9.2380000
   5.2483531  25.6864519  -8.5048473   5.6600000  27.4140000  -9.6810000
   5.0712895  28.3268015  -9.5898265   6.9190000  27.5570000  -8.8250000
   7.4344590  26.5967043  -8.8097256   7.5628313  28.3071036  -9.2842666
   6.5900000  27.9740000  -7.4110000   6.0630501  28.9271498  -7.4549329
   5.9348579  27.2167485  -6.9803481   7.8310000  28.1210000  -6.5460000
   8.4579870  27.2378357  -6.6685036   8.3839926  29.0053032  -6.8627119
   7.4930000  28.2620000  -5.1340000   7.5475754  27.4360214  -4.5553117
   7.1300000  29.4040000  -4.5720000   7.0520000  30.5140000  -5.2980000
   7.2709178  30.4855702  -6.2835794   6.7741489  31.3811248  -4.8609725
   6.8370000  29.4300000  -3.2840000   6.8919677  28.5811243  -2.7394922
   6.5593938  30.2986306  -2.8498175   5.9950000  27.2920000 -11.1620000
   5.9960000  28.2930000 -11.8840000   6.2470000  26.0770000 -11.6460000
   6.3893533  25.2693975 -11.0564128   6.4190000  25.9210000 -13.0850000
   7.1098089  26.6740797 -13.4641480   6.9480000  24.5220000 -13.4300000
   6.3451509  23.7688629 -12.9225969   6.8660000  24.3080000 -14.9330000
   7.4690153  25.0605326 -15.4411021   7.2412586  23.3149204 -15.1801326
   5.8288547  24.3949070 -15.2568457   8.3950000  24.3730000 -12.9370000
   9.0272243  24.9511087 -13.6109314   8.4416856  24.8038122 -11.9368396
   8.8760000  22.9610000 -12.8930000   8.8300414  22.5296344 -13.8929557
   9.9052784  22.9382316 -12.5349962   8.2445008  22.3823370 -12.2188651
   5.1150000  26.2190000 -13.8110000   5.1070000  26.8710000 -14.8600000
   3.9900000  25.7520000 -13.2750000   3.9790526  25.1567553 -12.4591181
   2.7210000  26.0610000 -13.9220000   2.7517752  25.7410741 -14.9635371
   1.5740000  25.3420000 -13.2260000   1.5688574  25.5978192 -12.1664580
   0.6193092  25.6217567 -13.6714231   1.6620000  23.8660000 -13.3050000
   2.5660000  23.2630000 -14.1550000   3.2147570  23.8854591 -14.7712458
   2.6540000  21.8950000 -14.2300000   3.3779307  21.4321791 -14.9006876
   1.8310000  21.1100000 -13.4610000   1.9023985  20.0237762 -13.5168566
   0.9130000  21.6980000 -12.6170000   0.2504818  21.0789048 -12.0121107
   0.8340000  23.0740000 -12.5390000   0.1131152  23.5413571 -11.8681779
   2.4670000  27.5610000 -13.9370000   2.0120000  28.1060000 -14.9490000
   2.7510000  28.2500000 -12.8210000   3.1153589  27.7960128 -11.9956289
   2.4490000  29.6790000 -12.7500000   1.3860714  29.8367990 -12.9327061
   2.8000000  30.2490000 -11.3620000   3.6246127  29.6415792 -10.9889678
   3.1489483  31.2668497 -11.5361184   1.6560000  30.2670000 -10.3140000
   0.7763475  30.6961415 -10.7937394   1.4490758  29.2340249 -10.0342737
   2.0090000  31.1000000  -9.0230000   3.0458881  31.4263779  -9.1032465
   1.3554929  31.9718531  -8.9929993   1.8460000  30.3390000  -7.7570000
   0.8994386  30.0802069  -7.5179457   2.8380000  29.9920000  -6.9170000
   2.5750000  29.2960000  -5.7990000   1.6244068  29.0298534  -5.5853683
   3.3289931  29.0418704  -5.1768970   4.0960000  30.3570000  -7.1850000
   4.2967959  30.8922131  -8.0176632   4.8397640  30.0958434  -6.5535643
   3.1640000  30.4610000 -13.8520000   2.6730000  31.5090000 -14.2830000
   4.3000000  29.9700000 -14.3450000   4.6759655  29.0983788 -13.9999988
   5.0650000  30.7050000 -15.3480000   4.7702733  31.7542616 -15.3648940
   6.5690000  30.6220000 -15.0390000   6.8807172  29.5782131 -15.0769678
   7.3680000  31.4260000 -16.0510000   7.0571431  32.4700524 -16.0132886
   8.4298673  31.3548699 -15.8154636   7.1909486  31.0306310 -17.0512184
   6.8210000  31.1230000 -13.7230000   7.7608050  31.0692047 -13.5346572
   4.8100000  30.2130000 -16.7700000   4.5220000  31.0180000 -17.6600000
   4.9190000  28.9080000 -17.0090000   5.1534189  28.2864725 -16.2481776
   4.7660000  28.3420000 -18.3390000   5.1167892  29.0489792 -19.0908154
   5.5910000  27.0570000 -18.4530000   5.2159634  26.4070669 -17.6624092
   5.4282905  26.5823218 -19.4206292   7.0830000  27.2960000 -18.2490000
   7.2412567  27.7204536 -17.2575895   7.8520000  25.9950000 -18.3700000
   7.6945948  25.5701533 -19.3613767   8.9149065  26.1854403 -18.2214637
   7.5001515  25.2927299 -17.6142754   7.5820000  28.3380000 -19.2520000
   7.0433749  29.2737992 -19.1027948   8.6486172  28.5054644 -19.1023846
   7.4100193  27.9781524 -20.2664118   3.3200000  28.0480000 -18.6970000
   3.0300000  27.8030000 -19.8740000   2.4160000  28.0780000 -17.7160000
   2.7185233  28.3435950 -16.7896965   1.0200000  27.7480000 -17.9140000
   0.3993700  28.3920657 -17.2910256   0.7546394  27.8914112 -18.9614332
   0.7680000  26.3080000 -17.5360000   1.6120000  25.4460000 -17.7950000
  -0.3630000  26.0330000 -16.9060000  -0.9818696  26.7678310 -16.5943540
  -0.7260000  24.6580000 -16.6150000   0.0349392  24.2044782 -15.9798712
  -2.0620000  24.5880000 -15.8970000  -2.8383784  24.9925554 -16.5463625
  -2.3950000  23.1450000 -15.5470000  -1.6192525  22.7398827 -14.8972343
  -3.3552149  23.1076760 -15.0325165  -2.4493957  22.5523582 -16.4601908
  -1.9790000  25.3650000 -14.7020000  -2.8186205  25.3289956 -14.2379511
  -0.7900000  23.8680000 -17.9160000  -1.5580000  24.2350000 -18.8230000
  -0.0080000  22.8040000 -18.0510000   0.8710000  22.2150000 -17.0330000
   0.3245040  22.1080412 -16.0959823   1.7346105  22.8616166 -16.8775559
   1.2460000  20.8970000 -17.6330000   0.5451112  20.1332052 -17.2961449
   2.2541841  20.6289597 -17.3170561   1.1830000  21.0790000 -19.1020000
   0.9453957  20.1170980 -19.5562992   2.0896474  21.4801187 -19.5549834
   0.0200000  22.0540000 -19.3090000   0.1842285  22.7555853 -20.1268663
  -1.2800000  21.3070000 -19.5380000  -2.0450000  21.0420000 -18.6110000
  -1.5240000  20.9640000 -20.8020000  -0.9722099  21.3663322 -21.5461477
  -2.6400000  20.0910000 -21.1610000  -2.8217808  19.4031956 -20.3351791
  -3.9480000  20.8700000 -21.4540000  -4.7169652  20.1323907 -21.6836177
  -4.2186107  21.4048607 -20.5436188  -3.8310000  21.8670000 -22.6180000
  -2.8370000  21.8450000 -23.3840000  -4.7630000  22.6930000 -22.7610000
  -2.2190000  19.2290000 -22.3420000  -1.0910000  19.3330000 -22.8390000
  -3.1430000  18.3680000 -22.7930000  -4.0684251  18.3450393 -22.3890687
  -2.8180000  17.3980000 -23.8320000  -1.9565927  16.8073935 -23.5201337
  -3.9880000  16.4540000 -24.0920000  -4.8703354  17.0772861 -24.2372513
  -3.7642594  15.9209040 -25.0160394  -4.2540000  15.4500000 -22.9790000
  -4.2826951  15.9966578 -22.0364277  -5.2297361  15.0028211 -23.1689192
  -3.2070000  14.3600000 -22.8980000  -2.5790000  14.0390000 -23.9300000
  -3.0100000  13.8250000 -21.7890000  -2.4090000  18.0630000 -25.1320000
  -1.6450000  17.4640000 -25.8900000  -2.8710000  19.2860000 -25.4020000
  -3.5683026  19.7273076 -24.8196633  -2.4480000  19.9750000 -26.6190000
  -2.5061760  19.3206197 -27.4887707  -3.3220000  21.2120000 -26.8760000
  -3.5137695  21.7208726 -25.9313454  -2.6060000  22.1610000 -27.8270000
  -2.4142879  21.6529468 -28.7721081  -3.2302338  23.0364775 -28.0058067
  -1.6601029  22.4740089 -27.3849527  -4.6540000  20.7710000 -27.4410000
  -5.1517353  20.1133573 -26.7283516  -5.2784240  21.6451955 -27.6253273
  -4.4930697  20.2361984 -28.3770500  -0.9620000  20.3370000 -26.5620000
  -0.2120000  20.0850000 -27.5180000  -0.5040000  20.9450000 -25.4610000
  -1.0741467  21.1927231 -24.6649690   0.9040000  21.3270000 -25.4490000
   1.2831268  21.5780767 -26.4396173   1.2210000  22.4880000 -24.4930000
   2.2341109  22.8393712 -24.6885601   0.2340000  23.6400000 -24.6950000
  -0.7793547  23.2894889 -24.4991550   0.4762924  24.4513118 -24.0085832
   0.3010803  24.0008668 -25.7213416   1.2770000  22.0010000 -23.0490000
   2.0541751  21.2431093 -22.9504985   1.5027252  22.8398441 -22.3906017
   0.3141837  21.5714483 -22.7722854   1.7920000  20.1570000 -25.0880000
   2.9840000  20.1690000 -25.4160000   1.2520000  19.1360000 -24.4430000
   0.2608065  19.1284395 -24.2491506   2.0640000  18.0340000 -23.9380000
   2.9447087  17.9043701 -24.5670052   2.5220000  18.3220000 -22.5110000
   3.0030423  19.2981271 -22.4487626   1.6673032  18.2949650 -21.8350839
   3.4840000  17.3500000 -22.0060000   3.9940000  16.2850000 -22.6740000
   3.6493353  16.1342791 -23.6970294   4.8730000  15.6020000 -21.8730000
   5.3808379  14.7661309 -22.1250377   4.9460000  16.2440000 -20.6630000
   5.6990000  15.9440000 -19.5330000   6.3543338  15.0735422 -19.5636514
   5.5690000  16.7650000 -18.4480000   6.1358916  16.5529823 -17.5414779
   4.7220000  17.8760000 -18.4730000   4.6324979  18.5329001 -17.6077999
   3.9680000  18.1770000 -19.6020000   3.3295378  19.0601411 -19.5790097
   4.0760000  17.3460000 -20.7180000   1.2660000  16.7440000 -24.0170000
   0.7270000  16.2630000 -23.0100000   1.2010000  16.1280000 -25.1980000
   2.0230000  16.4090000 -26.3880000   3.0584182  16.1285958 -26.1946535
   1.9733852  17.4713040 -26.6270555   1.3880000  15.5630000 -27.4320000
   2.1480789  15.2536075 -28.1493949   0.6216992  16.1452417 -27.9437411
   0.7890000  14.3920000 -26.7360000   1.5616799  13.6266218 -26.6634669
  -0.0905971  13.9742910 -27.2258241   0.4200000  14.8920000 -25.3390000
  -0.6396683  15.1298008 -25.2459834   0.8090000  13.8910000 -24.2670000
   1.9870000  13.6720000 -23.9990000  -0.1920000  13.3000000 -23.6340000
  -1.1439081  13.5333947 -23.8779205   0.0280000  12.3230000 -22.5960000
  -0.7915097  11.6070169 -22.6582197   0.9669015  11.8209742 -22.8295237
   0.0990000  12.8700000 -21.1840000   0.0100000  12.0900000 -20.2270000
   0.2410000  14.1830000 -21.0130000   0.2416772  14.8280570 -21.7901746
   0.5010000  14.7100000 -19.6750000   1.3753979  14.2460815 -19.2185933
   0.7200000  16.2340000 -19.7210000   1.4510145  16.4651797 -20.4957729
  -0.5920000  16.9500000 -20.0300000  -1.3234194  16.7196563 -19.2553592
  -0.4211218  18.0261270 -20.0591851  -0.9697752  16.6162830 -20.9964474
   1.3020000  16.7160000 -18.4100000   2.2578574  16.2229091 -18.2330821
   1.4527557  17.7946461 -18.4535307   0.6152150  16.4781340 -17.5976903
  -0.6180000  14.3420000 -18.7040000  -0.3590000  14.0790000 -17.5250000
  -1.8740000  14.3240000 -19.1630000  -2.1031523  14.5375604 -20.1231982
  -2.9700000  14.0580000 -18.2310000  -2.8082422  14.5847951 -17.2905636
  -4.3060000  14.5080000 -18.8190000  -5.1076125  14.2076290 -18.1442445
  -4.3330000  16.0160000 -18.9970000  -3.5319036  16.3170966 -19.6720444
  -5.2931723  16.3156724 -19.4169580  -4.1933278  16.4990849 -18.0299317
  -4.4990000  13.8630000 -20.0780000  -5.3372393  14.1406861 -20.4546240
  -3.0640000  12.5930000 -17.8230000  -3.8280000  12.2700000 -16.9130000
  -2.2830000  11.7100000 -18.4380000  -1.7403404  12.0181011 -19.2321622
  -2.2300000  10.3020000 -18.0700000  -3.0807723  10.0375179 -17.4420391
  -2.2800000   9.4580000 -19.3390000  -1.3982819   9.6614314 -19.9466908
  -2.3013138   8.4011866 -19.0729339  -3.4500000   9.7840000 -20.0780000
  -3.4820666   9.2529445 -20.8770943  -0.9990000   9.9390000 -17.2260000
  -0.8220000   8.7670000 -16.8880000  -0.1580000  10.9280000 -16.8480000
  -0.3636530  11.8781900 -17.1217611   1.0600000  10.6760000 -16.0900000
   1.5748720   9.8068685 -16.4994098   1.9950000  11.8740000 -16.1630000
   1.5086111  12.7114174 -15.6627429   2.9122332  11.6177620 -15.6327875
   2.3260000  12.2600000 -17.5800000   2.4919460  11.3378113 -18.1368939
   1.4571978  12.7778673 -17.9863229   3.7640000  13.3100000 -17.7400000
   5.0790000  12.1570000 -17.3100000   5.0714993  11.3198114 -18.0079671
   6.0413371  12.6659845 -17.3642481   4.9211666  11.7863857 -16.2971649
   0.7610000  10.3650000 -14.6270000  -0.1570000  10.9380000 -14.0410000
   1.5720000   9.4990000 -14.0070000   2.8890000   9.0130000 -14.4730000
   3.6088803   9.8306555 -14.4367763   2.7990854   8.6539220 -15.4982206
   3.2160000   7.9200000 -13.5150000   4.2958714   7.8620587 -13.3785467
   2.8477268   6.9699552 -13.9021577   2.5220000   8.2820000 -12.2380000
   3.1273967   8.9645543 -11.6415828   2.2876401   7.3955108 -11.6486682
   1.2240000   8.9800000 -12.6740000   0.4111546   8.2673987 -12.8139289
   0.8000000  10.0400000 -11.6740000  -0.0960000   9.7880000 -10.8500000
   1.4180000  11.2210000 -11.7110000   2.1137036  11.3998208 -12.4210134
   1.2010000  12.2350000 -10.6840000   0.5461252  11.8484761  -9.9030791
   2.5420000  12.6170000 -10.0530000   3.2339391  12.9848336 -10.8106398
   2.3207468  13.4158845  -9.3452355   3.1740000  11.4470000  -9.3150000
   2.6950000  11.1090000  -8.2120000   4.1100000  10.8240000  -9.8540000
   0.4550000  13.4650000 -11.1920000   0.3700000  14.4670000 -10.4720000
  -0.1030000  13.4050000 -12.3990000   0.1285978  12.6583758 -13.0385421
  -1.0370000  14.4270000 -12.8420000  -0.5960615  15.4130594 -12.6958520
  -1.3710000  14.2560000 -14.3240000  -0.4371045  14.3007293 -14.8843015
  -1.8171993  13.2683881 -14.4407426  -2.3320000  15.3130000 -14.8540000
  -3.7110000  15.1000000 -14.8630000  -4.1023031  14.1536102 -14.4897338
  -4.5830000  16.0740000 -15.3390000  -5.6587790  15.8985132 -15.3413784
  -4.0730000  17.2730000 -15.8250000  -4.9110000  18.2670000 -16.3060000
  -5.8399018  18.0288958 -16.2607499  -2.7130000  17.4960000 -15.8240000
  -2.3127287  18.4346439 -16.2071854  -1.8560000  16.5270000 -15.3360000
  -0.7809580  16.7065155 -15.3233921  -2.3110000  14.3480000 -12.0160000
  -2.8160000  13.2600000 -11.7270000  -2.8230000  15.5110000 -11.6300000
  -2.2944921  16.3554646 -11.7963076  -4.1000000  15.6210000 -10.9440000
  -4.5926173  14.6487302 -10.9331015  -3.9090000  16.0900000  -9.4960000
  -3.4362654  17.0715351  -9.5307863  -4.8990652  16.1797777  -9.0489979
  -3.0500000  15.1380000  -8.6500000  -2.0574087  15.0744984  -9.0959046
  -2.9694492  15.5439177  -7.6416129  -3.6820000  13.7180000  -8.5880000
  -4.4797820  13.7451260  -7.8457689  -4.1061948  13.5036169  -9.5689170
  -2.6640000  12.6100000  -8.2120000  -1.6651051  13.0157406  -8.3722628
  -2.7995261  12.3869849  -7.1537013  -2.8290000  11.3340000  -9.0240000
  -2.7030300  11.5403535 -10.0046373  -2.1391125  10.6569845  -8.7310746
  -3.7543866  10.9576382  -8.8753042  -4.9570000  16.6030000 -11.7280000
  -4.5570000  17.7680000 -11.8900000  -6.1240000  16.2120000 -12.2390000
  -6.8730000  14.9760000 -11.9830000  -7.3919664  15.0419533 -11.0267447
  -6.1959562  14.1218646 -11.9702117  -7.8120000  14.9410000 -13.1440000
  -8.6863327  14.3367759 -12.9020196  -7.3128295  14.5230804 -14.0182273
  -8.1830000  16.3700000 -13.3740000  -9.0086792  16.6351293 -12.7136521
  -8.4622020  16.5803187 -14.4064301  -6.9320000  17.1760000 -12.9950000
  -6.3630791  17.4804030 -13.8735022  -7.2810000  18.3950000 -12.1750000
  -7.6880000  19.4210000 -12.7410000  -7.1180000  18.3120000 -10.8530000
  -6.8295757  17.4299183 -10.4544494  -7.4010000  19.4160000  -9.9510000
  -8.2779115  19.9671024 -10.2907226  -7.6790000  18.8710000  -8.5520000
  -7.7812117  19.7045970  -7.8571848  -8.6056642  18.2973308  -8.5692343
  -6.6190000  18.0390000  -8.1350000  -6.8037296  17.7020851  -7.2552482
  -6.2790000  20.4500000  -9.8970000  -6.4170000  21.4440000  -9.1770000
  -5.1920000  20.2600000 -10.6330000  -5.0317764  19.3953842 -11.1298575
  -4.1890000  21.3090000 -10.7330000  -3.6772017  21.4161023  -9.7766053
  -3.1520000  20.9770000 -11.8080000  -3.6519998  20.6554470 -12.7216209
  -2.5385702  21.8529137 -12.0191377  -2.2210000  19.8890000 -11.4290000
  -2.1140000  19.4930000 -10.1050000  -2.7243889  19.9893174  -9.3505503
  -1.2500000  18.4860000  -9.7380000  -1.1715818  18.1802501  -8.6947032
  -0.4810000  17.8630000 -10.6990000   0.2074570  17.0677575 -10.4131394
  -0.5830000  18.2470000 -12.0260000   0.0202419  17.7520792 -12.7870866
  -1.4520000  19.2600000 -12.3840000  -1.5322639  19.5659502 -13.4270974
  -4.8640000  22.6290000 -11.0880000  -5.6370000  22.6770000 -12.0530000
  -4.5890000  23.7130000 -10.3630000  -3.6800000  23.8230000  -9.2100000
  -2.6465274  23.7692707  -9.5522687  -3.8738700  23.0084814  -8.5120940
  -4.0270000  25.1630000  -8.6350000  -3.1543178  25.5910162  -8.1417181
  -4.8364532  25.0570408  -7.9127400  -4.4590000  25.9970000  -9.8050000
  -3.5557094  26.4020653 -10.2611658  -5.1423233  26.8122521  -9.5672334
  -5.1330000  25.0140000 -10.7680000  -6.2175212  24.9989211 -10.6599041
  -4.7720000  25.3020000 -12.2200000  -3.7890000  24.7830000 -12.7540000
  -5.5780000  26.1320000 -12.8670000  -6.3823733  26.5073403 -12.3851260
  -5.3830000  26.4880000 -14.2720000  -4.7066898  25.7793145 -14.7499838
  -6.7210000  26.4510000 -15.0000000  -7.4847974  26.3105139 -14.2351624
  -6.8473761  27.4293901 -15.4635536  -6.8570000  25.3790000 -16.0470000
  -7.8663213  25.4495439 -16.4524564  -6.1342539  25.6007173 -16.8322271
  -6.6190000  23.9710000 -15.5220000  -5.5978154  23.8950653 -15.1484831
  -7.3180876  23.7674559 -14.7108615  -6.8310000  22.9400000 -16.6560000
  -7.8940246  22.9498681 -16.8967944  -6.2611049  23.2940979 -17.5150305
  -6.4130000  21.5570000 -16.3220000  -6.9412656  21.2285392 -15.5262936
  -6.5851373  20.9529871 -17.1129723  -5.4279131  21.5475638 -16.0992583
  -4.7330000  27.8770000 -14.3330000  -5.4010000  28.8900000 -14.1080000
  -3.4270000  27.9330000 -14.6240000  -2.9277950  27.0665263 -14.7658349
  -2.6860000  29.1870000 -14.7430000  -3.3040283  30.0050899 -14.3730417
  -1.3840000  29.1540000 -13.9370000  -0.9378351  28.1727031 -14.0985318
  -0.6946641  29.9265200 -14.2777768  -1.5180000  29.3220000 -12.4750000
  -1.7370000  30.4890000 -11.7950000  -1.8465691  31.3950029 -12.3910312
  -1.7720000  30.2460000 -10.4380000  -1.9172909  30.9384027  -9.7171889
  -1.5660000  28.9070000 -10.2260000  -1.5110000  28.1850000  -9.0350000
  -1.6615128  28.7142878  -8.0940967  -1.2680000  26.8390000  -9.1270000
  -1.2120667  26.2412197  -8.2172582  -1.0880000  26.2060000 -10.3720000
  -0.8950734  25.1348726 -10.4317060  -1.1500000  26.9190000 -11.5500000
  -1.0154903  26.3808310 -12.4882867  -1.3900000  28.2960000 -11.4890000
  -2.3260000  29.4680000 -16.1950000  -1.9330000  28.5610000 -16.9330000
  -2.4070000  30.7320000 -16.5920000  -2.7466643  31.4522386 -15.9707239
  -2.0400000  31.1090000 -17.9530000  -2.3729541  30.3256737 -18.6339116
  -2.6940000  32.4310000 -18.3700000  -2.3630847  33.2269792 -17.7029076
  -2.4065024  32.6722832 -19.3933415  -3.7781629  32.3352096 -18.3107195
  -0.5330000  31.2400000 -18.0860000   0.1660000  31.6330000 -17.1520000
  -0.0330000  30.9080000 -19.2620000  -0.5951476  30.4703558 -19.9779308
   1.3700000  31.1450000 -19.5390000   1.9796341  30.6713470 -18.7695208
   1.7600000  30.5710000 -20.8880000   1.5312171  29.5054346 -20.8698906
   1.1457301  31.0611847 -21.6433089   3.2010000  30.7640000 -21.2180000
   3.4540917  31.8236757 -21.2516572   3.8377758  30.2618502 -20.4896703
   3.4120000  30.1650000 -22.5520000   3.1956000  29.0983029 -22.4934563
   2.7277362  30.6358174 -23.2578424   4.7680000  30.3380000 -23.0340000
   5.0064690  31.2154717 -23.4736310   5.7100000  29.4110000 -22.9190000
   5.4310000  28.2520000 -22.3130000   4.5045554  28.0878728 -21.9457634
   6.1480033  27.5460835 -22.2253192   6.9200000  29.6400000 -23.4170000
   7.1149215  30.5166489 -23.8791605   7.6395165  28.9364144 -23.3311972
   1.6430000  32.6370000 -19.5150000   0.8270000  33.4450000 -19.9620000
   2.7930000  33.0030000 -18.9820000   3.4452214  32.3112038 -18.6412294
   3.1440000  34.4020000 -18.8490000   2.2372329  35.0056157 -18.8100039
   3.9400000  34.6390000 -17.5770000   4.6773744  33.8376227 -17.5303874
   4.4491067  35.5929284 -17.7145899   3.1580000  34.6710000 -16.3030000
   2.4285437  35.4784607 -16.3662577   2.6416719  33.7294335 -16.1160244
   4.0880000  34.9500000 -15.1450000   4.7450000  36.0010000 -15.1030000
   4.1900000  33.9970000 -14.2170000   4.7981450  34.1333520 -13.4222237
   3.6586079  33.1435256 -14.3134637   3.9650000  34.8640000 -20.0400000
   4.7130000  34.0900000 -20.6510000   3.8330000  36.1470000 -20.3530000
   3.1393831  36.7319267 -19.9093158   4.6620000  36.7300000 -21.3920000
   4.5597706  36.1590170 -22.3148362   4.2310000  38.1740000 -21.6600000
   3.1424029  38.2059557 -21.6148957   4.6453681  38.8087179 -20.8767170
   4.6950000  38.6740000 -23.0130000   4.2410000  38.1260000 -24.0500000
   5.5220000  39.6080000 -23.0400000   6.1190000  36.6570000 -20.9550000
   6.4570000  37.0060000 -19.8190000   6.9850000  36.1610000 -21.8370000
   6.7176161  35.8034990 -22.7429791   8.3800000  36.0570000 -21.4390000
   8.4470450  35.5953203 -20.4538828   9.1620000  35.2050000 -22.4300000
   8.6919775  35.2624508 -23.4117726  10.1969607  35.5390790 -22.5031270
   9.2050000  33.7590000 -22.0610000   8.1710000  33.1890000 -21.3430000
   7.3228629  33.8047861 -21.0437162   8.2060000  31.8570000 -21.0060000
   7.3790915  31.4165735 -20.4489116   9.2840000  31.0780000 -21.3710000
   9.3107763  30.0212248 -21.1052761  10.3240000  31.6360000 -22.0700000
  11.1817959  31.0271408 -22.3556168  10.2820000  32.9740000 -22.4120000
  11.1072850  33.4210230 -22.9662337   9.0300000  37.4200000 -21.2880000
  10.0960000  37.5230000 -20.6670000   8.4140000  38.4650000 -21.8430000
   7.6465628  38.3357699 -22.4867694   8.8910000  39.8200000 -21.6000000
   9.9583198  39.8846826 -21.8115273   8.1480000  40.8090000 -22.5140000
   8.6648686  41.7678996 -22.4758218   8.1747266  40.4227433 -23.5329168
   6.7970000  40.9830000 -22.1090000   6.3636569  41.6043277 -22.6987164
   8.7540000  40.2250000 -20.1310000   9.4300000  41.1630000 -19.6950000
   7.8990000  39.5490000 -19.3600000   7.2415505  38.9064976 -19.7783900
   7.8620000  39.7320000 -17.9120000   8.1575233  40.7518689 -17.6657631
   6.4520000  39.4840000 -17.3620000   6.3601122  38.4088735 -17.2078607
   6.3961451  39.9944515 -16.4005326   5.3350000  39.9600000 -18.2470000
   5.5654338  39.6862241 -19.2765863   4.4124371  39.4681961 -17.9386031
   5.1650000  41.4420000 -18.1520000   5.0567378  41.7238540 -17.1046526
   6.0447052  41.9311350 -18.5702884   3.9270000  41.8770000 -18.9250000
   3.4079076  40.9823605 -19.2688950   3.2800197  42.4339051 -18.2472298
   4.2740000  42.7360000 -20.1020000   4.8731538  42.2199956 -20.7303741
   3.4281799  43.0019331 -20.5857023   4.7546325  43.5652532 -19.7835183
   8.8370000  38.7900000 -17.2180000   9.5420000  39.1940000 -16.2900000
   8.8860000  37.5350000 -17.6700000   8.3117635  37.2564421 -18.4527882
   9.6880000  36.5160000 -17.0040000   9.5453942  36.4982529 -15.9235150
   9.3210000  35.1340000 -17.5710000   9.6155638  35.0905837 -18.6195449
  10.0340000  34.0390000 -16.8000000   9.7395647  34.0814899 -15.7513802
   9.7635787  33.0674930 -17.2136990  11.1118345  34.1802086 -16.8802152
   7.8150000  34.9460000 -17.5350000   7.3372519  35.7198957 -18.1357864
   7.5609926  33.9655096 -17.9377634   7.4639145  35.0174229 -16.5055640
  11.1850000  36.8090000 -17.1360000  11.9460000  36.6480000 -16.1760000
  11.6330000  37.2320000 -18.3160000  11.0001266  37.2922294 -19.1008204
  13.0440000  37.5590000 -18.5350000  13.5657037  37.7138968 -17.5905788
  13.7570000  36.4440000 -19.3120000  14.6389619  36.8578063 -19.8008833
  14.1760000  35.3340000 -18.3710000  13.2944630  34.9193594 -17.8820557
  14.6805396  34.5497006 -18.9352826  14.8550227  35.7328273 -17.6173644
  12.8390000  35.9080000 -20.4040000  12.5787733  36.7148829 -21.0890723
  13.3497294  35.1167025 -20.9527288  11.9309718  35.5085040 -19.9523491
  13.1420000  38.8910000 -19.2740000  13.4570000  38.9150000 -20.4730000
  12.8830000  40.0120000 -18.6050000  12.5250000  40.1280000 -17.1780000
  13.4205988  40.0149206 -16.5670859  11.8075998  39.3497516 -16.9176823
  11.9360000  41.5010000 -17.0860000  12.1077588  41.9141846 -16.0920802
  10.8645070  41.4603955 -17.2818452  12.6420000  42.2980000 -18.1390000
  13.6236341  42.5947202 -17.7696077  12.1000985  43.1806881 -18.4785645
  12.7990000  41.3040000 -19.2950000  11.9304527  41.2830741 -19.9532446
  14.0440000  41.5950000 -20.1110000  13.9400000  41.9630000 -21.2920000
  15.2390000  41.4350000 -19.5310000  15.5420000  40.9430000 -18.1770000
  15.5486549  39.8530222 -18.1749171  14.7870549  41.3025481 -17.4777989
  16.8900000  41.5250000 -17.9080000  17.4273606  40.8934401 -17.2005576
  16.7803521  42.5257944 -17.4902808  17.5760000  41.5720000 -19.2210000
  18.0626401  40.6235577 -19.4484590  18.3131143  42.3744050 -19.2511390
  16.4590000  41.8460000 -20.2450000  16.3582465  42.9109650 -20.4542761
  16.7210000  41.0940000 -21.5490000  17.6140000  41.5070000 -22.3000000
  15.9840000  40.0270000 -21.8640000  15.2171846  39.7571221 -21.2646175
  16.2710000  39.2020000 -23.0360000  17.3434873  39.1816922 -23.2295402
  15.7930000  37.7730000 -22.7860000  15.4927380  37.8079723 -21.7387565
  14.9101253  37.6461184 -23.4125248  16.7420000  36.6010000 -23.0030000
  16.6947282  36.3071343 -24.0515748  18.1590000  36.9670000 -22.6480000
  18.2071555  37.2605533 -21.5993788  18.8092438  36.1082017 -22.8145807
  18.4876815  37.7975333 -23.2727265  16.2560000  35.4510000 -22.1680000
  15.2460109  35.1795845 -22.4751728  16.9187513  34.5964884 -22.3046448
  16.2500392  35.7411710 -21.1173506  15.6040000  39.7560000 -24.2910000
  14.4540000  40.2000000 -24.2460000  16.3250000  39.7180000 -25.4160000
  17.3098129  39.4947601 -25.3958276  15.7320000  40.1160000 -26.6880000
  15.0157965  40.9202962 -26.5198949  16.8060000  40.6120000 -27.6670000
  16.2900359  40.9380348 -28.5700956  17.3044407  41.4647325 -27.2060181
  17.8500000  39.5440000 -28.0310000  17.7660000  38.4030000 -27.5300000
  18.7720000  39.8580000 -28.8270000  14.9020000  38.9610000 -27.2530000
  14.6830000  37.9360000 -26.5980000  14.3880000  39.1240000 -28.4700000
  14.5377631  39.9392020 -29.0471620  13.4540000  38.1100000 -28.9370000
  12.7516446  37.8641372 -28.1405407  12.6630000  38.6150000 -30.1490000
  13.3354676  39.2087239 -30.7681756  12.3199839  37.7482486 -30.7139619
  11.4410000  39.4800000 -29.7360000  11.7902918  40.5083520 -29.6433275
  10.7138706  39.4153588 -30.5454464  10.7660000  39.0330000 -28.3890000
  10.2480000  37.8860000 -28.2850000  10.7570000  39.8420000 -27.4250000
  14.1620000  36.7930000 -29.2250000  13.5770000  35.7220000 -29.0260000
  15.4270000  36.8390000 -29.6420000  15.8969270  37.7083027 -29.8507602
  16.1410000  35.5900000 -29.8880000  15.5382062  34.9292381 -30.5110029
  17.4530000  35.8790000 -30.6110000  17.8423571  36.8195790 -30.2213701
  18.1547196  35.0754473 -30.3874094  17.2720000  35.9910000 -32.1280000
  16.2320000  35.5160000 -32.6570000  18.1750000  36.5440000 -32.7920000
  16.3810000  34.8200000 -28.5920000  16.2090000  33.5940000 -28.5470000
  16.7590000  35.5280000 -27.5250000  16.9100031  36.5244078 -27.5918494
  16.9640000  34.8840000 -26.2360000  17.6820735  34.0759887 -26.3759546
  17.3803467  35.6252939 -25.5539163  15.6930000  34.3160000 -25.6320000
  15.7150000  33.2290000 -25.0530000  14.5720000  35.0440000 -25.7380000
  14.5883849  35.9776494 -26.1228762  13.2920000  34.5090000 -25.2680000
  13.3668845  34.2491089 -24.2120890  12.1840000  35.5420000 -25.4380000
  12.1308060  35.7692577 -26.5027176  11.2582543  35.0603960 -25.1231150
  12.3730000  36.8060000 -24.6690000  12.5407523  36.5750028 -23.6170493
  13.2312515  37.3509291 -25.0621395  11.1300000  37.6570000 -24.8060000
  11.0328810  38.0147075 -25.8310425  10.2474683  37.0754241 -24.5395291
  11.2170000  38.8080000 -23.9160000  11.0815577  38.6444173 -22.9285814
  11.4700000  40.0480000 -24.3250000  11.6440000  40.2870000 -25.6240000
  11.5827453  39.5273258 -26.2867541  11.8363738  41.2267712 -25.9401045
  11.5400000  41.0450000 -23.4380000  11.4002020  40.8540304 -22.4561206
  11.7323835  41.9849649 -23.7535208  12.9090000  33.2480000 -26.0210000
  12.3560000  32.3100000 -25.4370000  13.1720000  33.2240000 -27.3260000
  13.5136020  34.0489400 -27.7981032  12.9160000  32.0320000 -28.1190000
  11.8647864  31.7512652 -28.0539071  13.2560000  32.3150000 -29.5810000
  12.5714685  33.0695863 -29.9684472  14.2789783  32.6857222 -29.6456572
  13.1350000  31.1360000 -30.3430000  13.3504700  31.3237985 -31.2594629
  13.7130000  30.8410000 -27.5910000  13.1530000  29.7710000 -27.3190000
  15.0280000  31.0120000 -27.4380000  15.4706119  31.8927751 -27.6580663
  15.8700000  29.9060000 -27.0000000  15.7800656  29.0727671 -27.6969462
  17.3290000  30.3410000 -26.9470000  17.5543152  30.5195236 -27.9984094
  17.4176829  31.2756172 -26.3931715  18.3190000  29.3140000 -26.3790000
  18.0964473  29.1904824 -25.3191346  18.2390000  27.9500000 -27.0810000
  18.4619031  28.0726475 -28.1408918  18.9627031  27.2680368 -26.6345912
  17.2355459  27.5400791 -26.9663476  19.7450000  29.8530000 -26.4110000
  19.8037967  30.7622738 -25.8127830  20.4256709  29.1057168 -26.0031321
  20.0263539  30.0768606 -27.4399924  15.4210000  29.3950000 -25.6470000
  15.2100000  28.1920000 -25.4630000  15.2760000  30.2970000 -24.6800000
  15.5231072  31.2666196 -24.8173872  14.7880000  29.8880000 -23.3710000
  15.4987257  29.2062498 -22.9038975  14.6200000  31.1060000 -22.4730000
  15.6092004  31.5545467 -22.3814151  13.9356447  31.8253953 -22.9226979
  14.1120000  30.7170000 -21.0970000  13.1989168  30.1308476 -21.2009478
  15.1670000  29.8890000 -20.3750000  16.0802866  30.4746926 -20.2702599
  14.7986426  29.6115505 -19.3873587  15.3781422  28.9873665 -20.9499578
  13.7580000  31.9450000 -20.3280000  12.9806113  32.4949672 -20.8583794
  13.3934309  31.6632387 -19.3401735  14.6408889  32.5754851 -20.2226682
  13.4660000  29.1480000 -23.4920000  13.2470000  28.1250000 -22.8300000
  12.5650000  29.6630000 -24.3230000  12.7540376  30.5105339 -24.8388007
  11.2560000  29.0430000 -24.4700000  10.7248888  29.0508416 -23.5181814
  10.4350000  29.8230000 -25.4930000  10.5841735  30.8909291 -25.3337077
  10.7654861  29.5562586 -26.4968566   9.0640000  29.5130000 -25.3510000
   8.5554462  30.0075913 -25.9978016  11.3890000  27.5900000 -24.8860000
  10.6970000  26.7100000 -24.3610000  12.2970000  27.3220000 -25.8230000
  12.8492052  28.0731607 -26.2114925  12.4770000  25.9810000 -26.3640000
  11.5097914  25.5009697 -26.5129212  13.1940000  26.0650000 -27.7130000
  14.2081234  26.4190963 -27.5278819  13.2316102  25.0592772 -28.1315776
  12.5000000  27.0020000 -28.7010000  11.4616302  26.6863651 -28.8023096
  12.5338913  28.0135889 -28.2964738  13.1450000  27.0080000 -30.0840000
  13.3250000  25.9520000 -30.6910000  13.4950000  28.1970000 -30.5870000
  13.9251691  28.2491044 -31.4993273  13.3275058  29.0372453 -30.0521776
  13.2390000  25.0710000 -25.4080000  13.0670000  23.8450000 -25.4590000
  14.0930000  25.6400000 -24.5490000  14.3361733  26.6179053 -24.6173169
  14.7450000  24.8370000 -23.5260000  15.0570248  23.8841402 -23.9535488
  15.9770000  25.5510000 -22.9740000  15.6294575  26.4616008 -22.4860250
  16.4261842  24.8906328 -22.2322124  17.0020000  25.9020000 -24.0190000
  17.3976238  24.9837105 -24.4529666  16.5266274  26.4965403 -24.7991569
  18.3560000  26.8470000 -23.2960000  19.2030000  25.5860000 -22.3710000
  19.5367435  24.8000345 -23.0484751  20.0660427  26.0217574 -21.8676378
  18.5260485  25.1622826 -21.6291769  13.7950000  24.4970000 -22.3910000
  14.0660000  23.5540000 -21.6430000  12.6860000  25.2340000 -22.2550000
  12.5422714  26.0292871 -22.8607721  11.7080000  24.9800000 -21.2040000
  12.0862148  24.2101306 -20.5314275  11.4360000  26.2480000 -20.3920000
  11.1112406  26.9666528 -21.1444419  10.6111964  26.0379289 -19.7110674
  12.6120000  26.8310000 -19.6040000  13.4169926  27.0810724 -20.2950510
  12.1780000  28.0740000 -18.8670000  11.3732873  27.8246159 -18.1753759
  13.0223001  28.4801904 -18.3099835  11.8244381  28.8164309 -19.5824654
  13.1670000  25.8020000 -18.6480000  13.5117060  24.9330851 -19.2085927
  14.0023492  26.2319768 -18.0953582  12.3880819  25.4972074 -17.9490816
  10.4090000  24.4180000 -21.7610000   9.3730000  24.4880000 -21.1060000
  10.4470000  23.8580000 -22.9560000  11.2864808  23.9110857 -23.5150646
   9.2880000  23.1800000 -23.5150000   8.4625175  23.8770516 -23.6592112
   9.6800000  22.5990000 -24.8740000  10.4580754  23.2205231 -25.3171782
  10.0455304  21.5770915 -24.7730517   8.5640000  22.5560000 -25.8500000
   7.5930000  21.5760000 -25.8200000   6.7250000  21.7940000 -26.7920000
   5.8786914  21.1237948 -26.9426176   7.0960000  22.8830000 -27.4440000
   6.6187069  23.2913057 -28.2349346   8.2450000  23.3800000 -26.8730000
   8.7069749  24.2819776 -27.2743936   8.8100000  22.0740000 -22.5720000
   9.6150000  21.2980000 -22.0510000   7.4930000  21.9940000 -22.3430000
   6.8459677  22.6581141 -22.7435009   6.9640000  20.9610000 -21.4520000
   7.4555507  21.0291141 -20.4815168   5.4580000  21.1320000 -21.2500000
   5.0801664  21.5488204 -22.1835962   5.0234205  20.1450813 -21.0911534
   5.0780000  22.0400000 -20.1030000   5.3870000  21.7110000 -18.7820000
   5.9222788  20.7840681 -18.5761523   5.0180000  22.5550000 -17.7280000
   5.2647173  22.2904895 -16.6997653   4.3190000  23.7370000 -17.9980000
   3.9440000  24.6020000 -16.9830000   4.2135363  24.2986817 -16.1129725
   3.9990000  24.0670000 -19.3030000   3.4534949  24.9853535 -19.5201440
   4.3770000  23.2200000 -20.3410000   4.1249690  23.4736891 -21.3706710
   7.2520000  19.5630000 -21.9850000   7.6620000  18.6740000 -21.2330000
   7.0240000  19.3390000 -23.2700000   6.7208310  20.0989869 -23.8621214
   7.1320000  18.0050000 -23.8560000   6.7140931  17.2602674 -23.1786328
   6.3520000  17.9590000 -25.1770000   5.3155293  18.2044245 -24.9454949
   6.7651692  18.7185577 -25.8406741   6.4110000  16.5930000 -25.8660000
   7.0640000  15.6560000 -25.3350000   5.8050000  16.4590000 -26.9610000
   8.5940000  17.6180000 -24.0660000   9.2800000  18.2230000 -24.9010000
   9.1070000  16.6190000 -23.3420000   8.4370000  15.8070000 -22.3200000
   7.7406038  15.1173986 -22.7970561   7.8924344  16.4558977 -21.6340852
   9.5830000  15.1000000 -21.6520000   9.2442805  14.1189070 -21.3190966
   9.9024409  15.6853685 -20.7897920  10.6690000  14.9870000 -22.6430000
  10.5569131  14.0769443 -23.2323506  11.6514642  14.9948722 -22.1709812
  10.5130000  16.2160000 -23.5470000  11.1411018  17.0393295 -23.2068309
  10.8480000  15.8880000 -24.9940000  11.9990000  16.0880000 -25.4130000
   9.8850000  15.3990000 -25.7830000   8.9617864  15.1833696 -25.4347480
  10.1860000  15.0970000 -27.1790000  11.1412261  14.5759837 -27.2436866
   9.1030000  14.2080000 -27.7870000   8.1204995  14.6525568 -27.6283773
   9.2964001  14.1275242 -28.8566822   9.1070000  12.8390000 -27.1980000
  10.1660000  12.3040000 -26.8620000   7.9240000  12.2610000 -27.0370000
   7.8683044  11.3330757 -26.6420895   7.0843790  12.7514841 -27.3100617
  10.3500000  16.3520000 -28.0120000  11.0140000  16.3090000 -29.0490000
   9.7690000  17.4660000 -27.5880000   9.1908743  17.4723308 -26.7598515
   9.9010000  18.6970000 -28.3440000  10.2061866  18.4739889 -29.3663631
   8.5610000  19.4420000 -28.3840000   8.3631372  19.7737336 -27.3647344
   8.7110682  20.3103755 -29.0254855   7.3580000  18.6220000 -28.9010000
   7.3483300  17.6846792 -28.3447293   6.4590970  19.1922408 -28.6666908
   7.3960000  18.3230000 -30.4060000   6.4298103  17.9092682 -30.6947949
   7.5614705  19.2616112 -30.9348932   8.5090000  17.3270000 -30.7700000
   9.4589521  17.8561754 -30.6947345   8.4821426  16.5232354 -30.0342416
   8.3660000  16.7460000 -32.1540000   8.3912942  17.4905837 -32.8359495
   9.1249144  16.1030096 -32.3292491   7.4860081  16.2552471 -32.2238206
  10.9740000  19.6160000 -27.7930000  11.4300000  20.5080000 -28.5100000
  11.4090000  19.4080000 -26.5580000  11.0093107  18.6852620 -25.9766244
  12.4330000  20.2690000 -25.9830000  12.1001652  21.3069242 -25.9772005
  12.6990000  19.8350000 -24.5470000  11.7305582  19.5842473 -24.1141690
  13.3147012  18.9373024 -24.6031351  13.3850000  20.8610000 -23.6820000
  14.3899582  21.0491166 -24.0598519  12.8148196  21.7899467 -23.6893846
  13.4690000  20.3350000 -22.2730000  14.0180235  19.3933873 -22.2668603
  13.9845379  21.0596919 -21.6428081  12.1370000  20.1030000 -21.7250000
  11.3923996  20.6950915 -22.0642600  11.8470000  19.1770000 -20.8110000
  12.7970000  18.3760000 -20.3330000  13.7463220  18.4695643 -20.6648635
  12.5639952  17.6784661 -19.6407176  10.6030000  19.0450000 -20.3800000
   9.8786569  19.6465222 -20.7455109  10.3835049  18.3433297 -19.6874833
  13.7190000  20.2440000 -26.8170000  14.1850000  19.1850000 -27.2460000
  14.2910000  21.4310000 -27.0470000  13.9085691  22.2650226 -26.6248006
  15.4330000  21.5710000 -27.9430000  15.1963271  21.1767025 -28.9312381
  15.8020000  23.0550000 -28.0600000  14.9011141  23.6338354 -28.2636041
  16.4240000  23.5320000 -26.7810000  17.3252604  22.9539036 -26.5769539
  16.6827225  24.5868051 -26.8734634  15.7166227  23.4023839 -25.9619053
  16.7750000  23.2870000 -29.2140000  17.6946864  22.7499067 -28.9820336
  16.3256099  22.8654688 -30.1131438  17.0930000  24.7640000 -29.4480000
  17.5428766  25.1861340 -28.5493823  17.7893627  24.8586956 -30.2811932
  16.1737991  25.3016967 -29.6804903  16.6230000  20.7590000 -27.4560000
  16.8870000  20.6680000 -26.2550000  17.3640000  20.1820000 -28.3920000
  17.0693853  20.2119861 -29.3576098  18.5910000  19.4710000 -28.0670000
  18.4418770  18.8795621 -27.1636381  18.9960000  18.5350000 -29.2010000
  19.7246930  17.8206144 -28.8179086  18.1097042  18.0008762 -29.5434785
  19.5590000  19.2480000 -30.2770000  19.8037105  18.6348947 -30.9740068
  19.7110000  20.4620000 -27.8020000  19.6410000  21.6320000 -28.1760000
  20.7600000  19.9860000 -27.1420000  20.7730087  19.0583462 -26.7427651
  21.9130000  20.8510000 -26.9190000  21.5814320  21.7649600 -26.4262131
  22.9320000  20.1530000 -26.0190000  23.2801980  19.2405551 -26.5030481
  23.7786241  20.8170450 -25.8447239  22.4649949  19.9028552 -25.0664072
  22.5450000  21.2590000 -28.2440000  22.8660000  22.4330000 -28.4580000
  22.7210000  20.2930000 -29.1520000  22.5203742  19.3323560 -28.9132285
  23.2500000  20.5800000 -30.4840000  24.2569656  20.9906430 -30.4098932
  23.3080000  19.2840000 -31.3040000  23.8367318  18.5614832 -30.6822996
  22.2734304  18.9651264 -31.4308286  23.9850000  19.3710000 -32.6710000
  23.4398426  18.7351218 -33.3685408  23.9424427  20.4049644 -33.0133574
  25.4280000  18.9220000 -32.6020000  25.9851491  19.6312579 -31.9899239
  25.4647626  17.9359336 -32.1389438  26.0450000  18.8540000 -33.9830000
  26.0510670  19.8543514 -34.4158519  27.0689102  18.4909837 -33.8939704
  25.2800000  17.9510000 -34.8500000  24.3313038  18.2874378 -34.9329755
  25.7074512  17.9200343 -35.7645636  25.2746156  17.0238999 -34.4493064
  22.3940000  21.6240000 -31.1870000  22.8970000  22.6480000 -31.6610000
  21.0890000  21.3780000 -31.2610000  20.6940619  20.5148453 -30.9159098
  20.1990000  22.3390000 -31.8950000  20.4839255  22.4656708 -32.9394478
  18.7630000  21.8360000 -31.8400000  18.4601593  21.7129226 -30.8001733
  18.1060147  22.5570893 -32.3263135  18.6933186  20.8773737 -32.3540811
  20.3080000  23.6940000 -31.2270000  20.3010000  24.7310000 -31.9030000
  20.4200000  23.7080000 -29.8960000  20.4140307  22.8556983 -29.3541092
  20.4910000  24.9820000 -29.1830000  19.6154139  25.5782733 -29.4397222
  20.5010000  24.7540000 -27.6680000  21.3770136  24.1659507 -27.3943248
  20.5348687  25.7154443 -27.1555763  19.5982432  24.2181643 -27.3747263
  21.7180000  25.7700000 -29.6090000  21.6630000  26.9980000 -29.7400000
  22.8420000  25.0780000 -29.8240000  22.8998799  24.0920748 -29.6125745
  24.0390000  25.7510000 -30.3200000  24.3508798  26.5252770 -29.6190541
  25.1750000  24.7450000 -30.4720000  24.7534681  23.9234170 -31.0511472
  25.9915573  25.2016484 -31.0312910  25.7040000  24.2120000 -29.1450000
  24.8627308  23.9079310 -28.5221765  26.6120000  23.0240000 -29.3810000
  27.4538080  23.3274219 -30.0034093  26.9824543  22.6536296 -28.4251286
  26.0544783  22.2343049 -29.8846383  26.4400000  25.3010000 -28.3780000
  25.7590824  26.1280647 -28.1769661  26.8080026  24.8966123 -27.4350547
  27.2808261  25.6594317 -28.9718325  23.7800000  26.4550000 -31.6460000
  24.4000000  27.4860000 -31.9290000  22.8800000  25.9120000 -32.4740000
  22.4307298  25.0442213 -32.2186263  22.5440000  26.5100000 -33.7510000
  23.4616489  26.9129240 -34.1795696  21.9880000  25.4570000 -34.6960000
  21.0639414  25.0506230 -34.2848147  21.7849814  25.9098509 -35.6664689
  22.7158479  24.6544332 -34.8152607  21.5300000  27.6310000 -33.6460000
  21.2370000  28.2630000 -34.6610000  20.9770000  27.8970000 -32.4700000
  21.2475366  27.4049027 -31.6305064  19.9260000  28.8990000 -32.3740000
  19.1140546  28.6444951 -33.0552277  19.3680000  28.9670000 -30.9530000
  19.1988278  27.9655450 -30.5573135  20.0739939  29.4956795 -30.3125544
  18.0600000  29.6980000 -30.8460000  17.9810000  31.0660000 -30.6750000
  16.7110000  31.4240000 -30.6000000  16.4391954  32.4705522 -30.4623422
  15.9610000  30.3410000 -30.7180000  14.9516022  30.3111556 -30.6999651
  16.7790000  29.2480000 -30.8710000  16.3454650  28.2541578 -30.9824733
  20.4590000  30.2700000 -32.7780000  21.6440000  30.5580000 -32.5850000
  19.5950000  31.1430000 -33.3180000  18.1750000  30.9180000 -33.6340000
  17.5842916  30.9642412 -32.7191090  18.0531836  29.9380042 -34.0953762
  17.8630000  32.0290000 -34.5720000  16.8222572  32.3191331 -34.4278606
  18.0013026  31.6684365 -35.5912976  18.7740000  33.1410000 -34.2820000
  18.3371735  33.8022918 -33.5336854  19.0108671  33.7139330 -35.1785163
  20.0480000  32.4910000 -33.7240000  20.8127003  32.3571384 -34.4891227
  20.6100000  33.3190000 -32.5900000  21.3200000  34.2970000 -32.8530000
  20.2800000  32.9750000 -31.3420000  19.6282944  32.2184524 -31.1902935
  20.7920000  33.6910000 -30.1780000  20.4460998  34.7246569 -30.1803839
  20.2760000  33.0050000 -28.9090000  19.1905526  32.9061392 -28.9203875
  20.7299215  32.0153860 -28.8568510  20.6300000  33.7080000 -27.6300000
  20.1270000  34.9610000 -27.3470000  19.4816333  35.4494277 -28.0770959
  20.4300000  35.5960000 -26.1600000  20.0286151  36.5889426 -25.9573778
  21.2320000  34.9820000 -25.2390000  21.4742471  35.4816599 -24.3010468
  21.7340000  33.7280000 -25.5000000  22.3736380  33.2362184 -24.7671192
  21.4290000  33.0920000 -26.6880000  21.8202946  32.0945699 -26.8883039
  22.3100000  33.7440000 -30.1780000  22.8930000  34.7100000 -29.6720000
  22.9580000  32.7140000 -30.7360000  22.3983562  31.9754392 -31.1377786
  24.4080000  32.5740000 -30.7620000  24.8568184  33.2368513 -30.0222099
  24.8120000  31.1330000 -30.4370000  24.3328518  30.4541011 -31.1424165
  25.8940460  31.0180311 -30.5007077  24.4120000  30.6780000 -29.0640000
  24.9410000  31.2840000 -27.9320000  25.6562551  32.0986538 -28.0453547
  24.5710000  30.8660000 -26.6800000  24.9866573  31.3550863 -25.7990208
  23.6740000  29.8280000 -26.5340000  23.3820121  29.4983012 -25.5369335
  23.1480000  29.2090000 -27.6450000  22.4433248  28.3851605 -27.5317681
  23.5150000  29.6340000 -28.9040000  23.0986970  29.1477543 -29.7862453
  25.0250000  32.9610000 -32.0990000  26.2030000  32.6740000 -32.3190000
  24.2730000  33.5900000 -33.0050000  23.3011135  33.8122616 -32.8433342
  24.8410000  33.8820000 -34.3190000  25.1372037  32.9531920 -34.8065225
  23.8140000  34.5940000 -35.2050000  24.2990833  34.7839496 -36.1624511
  22.9853151  33.9007828 -35.3493310  23.2890000  35.8970000 -34.6380000
  22.7709157  35.7011364 -33.6992099  24.1355238  36.5585633 -34.4540611
  22.3350000  36.5860000 -35.5800000  22.4070000  36.3910000 -36.7960000
  21.4220000  37.3900000 -35.0270000  20.7590760  37.8754628 -35.6143322
  21.3990532  37.5085215 -34.0242401  26.1340000  34.6930000 -34.1880000
  27.1860000  34.2870000 -34.7000000  26.0930000  35.8150000 -33.4610000
  25.2190517  36.1539163 -33.0849022  27.2900000  36.6350000 -33.2800000
  27.7159354  36.8967199 -34.2485974  26.9250000  37.9330000 -32.5360000
  27.8560537  38.4576036 -32.3214555  26.3149749  38.5366417 -33.2080016
  26.1550000  37.6920000 -31.2190000  25.7510000  36.5410000 -30.9350000
  25.9520000  38.6730000 -30.4620000  28.4430000  35.9020000 -32.5660000
  29.5270000  36.4840000 -32.4330000  28.2570000  34.6540000 -32.1250000
  27.3413020  34.2346739 -32.2009085  29.3100000  33.9020000 -31.4410000
  30.2286138  34.4840062 -31.3667257  28.8770000  33.4750000 -30.0140000
  27.9097321  32.9774360 -30.0841584  29.8970000  32.5230000 -29.3680000
  30.8644706  33.0200626 -29.2970749  29.5564376  32.2478162 -28.3698058
  29.9942272  31.6252616 -29.9785032  28.6770000  34.6880000 -29.1270000
  27.9027824  35.3263480 -29.5526772  28.3736706  34.3645856 -28.1312620
  29.6105400  35.2464769 -29.0583884  29.7770000  32.6820000 -32.2360000
  30.7940000  32.0690000 -31.8640000  29.0870000  32.3160000 -33.3200000
  28.2981388  32.8740882 -33.6138280  29.4030000  31.1160000 -34.0780000
  30.4679474  30.8959041 -34.0035413  28.6130000  29.9060000 -33.5510000
  28.7051346  29.8748804 -32.4653467  27.1330000  30.0040000 -33.9350000
  27.0400316  30.0346982 -35.0205939  26.5988111  29.1355836 -33.5495208
  26.7057550  30.9115389 -33.5084611  29.1560000  28.6970000 -34.0930000
  28.6590920  27.9458531 -33.7606432  29.0880000  31.3490000 -35.5480000
  28.0270000  31.8850000 -35.8830000  30.0240000  30.9730000 -36.4230000
  30.9645135  30.7230418 -36.1527139  29.6860000  30.9620000 -37.8430000
  28.8489221  31.6378414 -38.0180378  30.8710000  31.4130000 -38.7110000
  31.1027639  32.4403231 -38.4299448  31.7149581  30.7696020 -38.4622556
  30.6030000  31.3440000 -40.2210000  30.3963221  30.3050027 -40.4776510
  29.7236694  31.9520389 -40.4335288  31.7780000  31.8460000 -41.0470000
  32.6730027  31.3079856 -40.7345745  31.5756567  31.6347067 -42.0970056
  31.9970000  33.3530000 -40.8620000  31.9623840  33.5524033 -39.7909535
  32.9931422  33.5806723 -41.2414276  30.9870000  34.2120000 -41.5630000
  30.0639289  34.0014946 -41.2112517  31.1977387  35.1852528 -41.3942748
  31.0192103  34.0276921 -42.5555181  29.2450000  29.5600000 -38.2700000
  29.7790000  28.5530000 -37.7660000  28.2690000  29.4800000 -39.1810000
  27.4780000  30.5920000 -39.7470000  28.1516825  31.3715200 -40.1028099
  26.8247426  31.0010430 -38.9762617  26.7080000  29.9380000 -40.8650000
  27.2722305  30.0134494 -41.7945431  25.7431023  30.4305546 -40.9852655
  26.5300000  28.5010000 -40.4440000  26.4702553  27.8680113 -41.3293558
  25.6486215  28.3405105 -39.8231017  27.8010000  28.1660000 -39.6470000
  27.5766088  27.5560529 -38.7719507  28.8430000  27.4540000 -40.5100000
  29.5350000  28.0610000 -41.3380000  28.9520000  26.1520000 -40.2870000
  28.3826785  25.7454718 -39.5585035  29.8760000  25.2860000 -41.0050000
  30.7021944  25.8541234 -41.4324784  30.4530000  24.1950000 -40.0860000
  31.2922951  23.7075628 -40.5820726  30.9290000  24.8260000 -38.7890000
  30.0901006  25.3132704 -38.2920932  31.3379245  24.0538551 -38.1373302
  31.7010593  25.5643540 -39.0054706  29.4210000  23.0970000 -39.8020000
  29.1165079  22.6324778 -40.7398730  29.8620350  22.3429735 -39.1500553
  28.5498195  23.5339329 -39.3139068  29.1170000  24.6590000 -42.1930000
  28.0390000  24.0980000 -41.9730000  29.6410000  24.7530000 -43.4020000
  30.8990000  25.4160000 -43.7770000  31.7411311  24.8241190 -43.4184022
  30.9342054  26.4076057 -43.3258042  30.8300000  25.4710000 -45.2700000
  31.8350953  25.3774854 -45.6812632  30.3998716  26.4245195 -45.5764173
  29.9550000  24.3270000 -45.6950000  30.5477590  23.4153177 -45.7696395
  29.4444476  24.5062941 -46.6411974  28.9280000  24.1900000 -44.5640000
  28.0397374  24.7981654 -44.7349466  28.5170000  22.7380000 -44.3630000
  29.3480000  21.8650000 -44.1080000  27.2220000  22.4730000 -44.5050000
  26.5651588  23.2147910 -44.7009725  26.7060000  21.1220000 -44.3300000
  27.2260830  20.6330123 -43.5062865  25.2040000  21.1540000 -44.0120000
  25.0409017  21.7727992 -43.1296249  24.6475914  21.5676103 -44.8530921
  24.5960000  19.8080000 -43.7130000  24.8590000  19.1070000 -42.5520000
  24.1900000  17.9650000 -42.5660000  24.2715938  17.2640778 -41.7352476
  23.4950000  17.9020000 -43.6890000  22.8908301  17.1437641 -43.9721200
  23.7250000  19.0440000 -44.4220000  23.2312553  19.1829636 -45.3837726
  26.9810000  20.3170000 -45.5920000  26.6850000  20.7600000 -46.7060000
  27.5740000  19.1510000 -45.4190000  27.9512212  18.9009479 -44.5160729
  27.7410000  18.2160000 -46.5180000  27.8471120  18.7540132 -47.4600092
  29.0010000  17.3800000 -46.2880000  29.7913795  18.1094165 -46.4650625
  29.0014359  17.0925861 -45.2365757  29.2440000  16.1510000 -47.1490000
  28.3455331  15.5344910 -47.1211663  29.5650000  16.5140000 -48.5910000
  30.4636741  17.1301664 -48.6196824  29.7307199  15.6036567 -49.1671187
  28.7309359  17.0686450 -49.0208911  30.3470000  15.3520000 -46.5320000
  30.0583612  15.0501098 -45.5251984  30.5358888  14.4649555 -47.1366274
  31.2519663  15.9576458 -46.4837488  26.5020000  17.3310000 -46.6170000
  26.0910000  16.7320000 -45.6190000  25.9040000  17.2510000 -47.8140000
  26.2456821  17.7846888 -48.6004661  24.7100000  16.4280000 -48.0010000
  23.9403009  16.7436549 -47.2967099  24.1600000  16.5590000 -49.4130000
  24.9891353  16.3971170 -50.1017872  23.4176149  15.7723344 -49.5476166
  23.5340000  17.8870000 -49.6910000  22.9422781  17.8186439 -50.6038491
  22.8855150  18.1574277 -48.8576704  24.6010000  18.9420000 -49.8610000
  24.8735263  19.3371269 -48.8823769  25.4776655  18.4931691 -50.3280202
  24.1370000  20.0470000 -50.7000000  24.0953923  19.8829587 -51.6957202
  23.7630000  21.2380000 -50.2360000  23.8070000  21.4870000 -48.9290000
  24.1245302  20.7704688 -48.2919305  23.5226487  22.3913017 -48.5804566
  23.3530000  22.1840000 -51.0790000  23.3266375  21.9953391 -52.0708731
  23.0703108  23.0857453 -50.7225720  24.9700000  14.9550000 -47.7130000
  24.6570000  14.4660000 -46.6240000  25.5010000  14.2280000 -48.6850000
  25.7197458  14.6475481 -49.5773166  25.7350000  12.7940000 -48.5170000
  25.8854208  12.5720244 -47.4604965  24.5330000  11.9680000 -49.0290000
  24.3771654  12.5043411 -49.9650305  24.9118599  10.9684675 -49.2423073
  23.1940000  11.8590000 -48.2700000  22.5445521  11.1992963 -48.8454210
  23.3430000  11.3120000 -46.8410000  23.9919870  11.9714716 -46.2647952
  22.3629852  11.2621359 -46.3664631  23.7798220  10.3140110 -46.8771231
  22.4310000  13.1870000 -48.2720000  22.2191381  13.4833577 -49.2993199
  21.4939499  13.0690685 -47.7278212  23.0361278  13.9550299 -47.7902849
  27.0100000  12.3690000 -49.2470000  28.0360000  13.0360000 -49.1660000
  26.4270000  11.4110000 -49.6220000  29.8800000   1.1240000 -41.7440000
  29.9156028   0.8867486 -40.7629061  30.8046718   1.3958074 -42.0459985
  29.3816012   0.3962838 -42.2360643  29.0610000   2.3180000 -41.8910000
  29.6945810   3.0644139 -42.3701040  28.2468854   2.0475926 -42.5634557
  28.4720000   2.9130000 -40.6100000  29.1410000   2.9870000 -39.5670000
  27.1960000   3.3370000 -40.6930000  26.7184751   3.1630238 -41.5658124
  26.4820000   4.0690000 -39.6450000  26.8312408   3.7576137 -38.6605364
  26.7430000   5.5760000 -39.8050000  27.8130319   5.7415788 -39.6796422
  26.4483323   5.8572840 -40.8160145  26.0290000   6.3670000 -38.8670000
  26.2289711   7.2945669 -39.0127085  24.9830000   3.7520000 -39.7100000
  24.3310000   4.0670000 -40.7200000  24.3890000   3.1040000 -38.6570000
  25.0850000   2.3380000 -37.6130000  25.2185559   2.9611362 -36.7287125
  26.0594584   2.0176095 -37.9816186  24.1200000   1.1370000 -37.3600000
  23.6147519   1.2720586 -36.4036619  24.6918619   0.2092660 -37.3403827
  23.1390000   1.1410000 -38.5070000  22.1733997   0.7194931 -38.2276310
  23.5051934   0.6446904 -39.4057095  22.9970000   2.6410000 -38.7610000
  22.6572159   2.8963445 -39.7647152  22.0430000   3.2340000 -37.7380000
  21.1400000   2.5330000 -37.2760000  22.2160000   4.4590000 -37.3600000
  22.9966764   5.0538074 -37.5984279  21.1960000   4.9850000 -36.4660000
  20.6488143   4.1626840 -36.0050407  21.8390000   5.8300000 -35.3560000
  22.5583864   6.4212947 -35.9225272  21.0655967   6.4855753 -34.9557896
  22.5590000   5.1200000 -34.1970000  23.0814608   4.2475377 -34.5893583
  23.5710000   6.0630000 -33.5220000  23.0491799   6.9355379 -33.1289603
  24.0679149   5.5391245 -32.7054641  24.3136008   6.3831002 -34.2528764
  21.5490000   4.5710000 -33.1830000  20.8895267   3.8570282 -33.6763950
  22.0811841   4.0731774 -32.3724113  20.9570730   5.3918542 -32.7781300
  20.1820000   5.8190000 -37.2410000  20.4010000   6.1660000 -38.4070000
  19.0450000   6.1390000 -36.6240000  18.5370000   5.5350000 -35.3720000
  19.2753149   5.6707283 -34.5817031  18.3660541   4.4701193 -35.5298151
  17.2540000   6.2920000 -35.1050000  17.4456982   7.0980863 -34.3967799
  16.5089035   5.6135446 -34.6895114  16.8020000   6.8350000 -36.4590000
  16.2618149   7.7667530 -36.2912640  16.1807446   6.1554046 -37.0423450
  18.1130000   7.1190000 -37.2070000  18.0391064   6.9343453 -38.2786999
  18.5950000   8.5520000 -36.9690000  19.5450000   8.7970000 -36.2210000
  17.9210000   9.5140000 -37.6050000  17.2013084   9.2960235 -38.2792623
  18.2630000  10.9230000 -37.3840000  19.3395145  11.0911240 -37.4148214
  17.5920000  11.8550000 -38.4010000  16.5660755  12.0529854 -38.0905489
  18.3630000  13.1690000 -38.4750000  19.3889644  12.9718586 -38.7858589
  17.8856925  13.8307181 -39.1977774  18.3660990  13.6447680 -37.4943182
  17.4790000  11.1890000 -39.7660000  16.8820300  10.2811121 -39.6795799
  16.9995827  11.8731876 -40.4661042  18.4744010  10.9353691 -40.1306218
  17.8660000  11.2950000 -35.9550000  16.6790000  11.4480000 -35.6490000
  18.8660000  11.4700000 -35.0900000  19.8211291  11.4168843 -35.4140469
  18.6300000  11.6960000 -33.6710000  17.7713541  11.1135499 -33.3369666
  19.8540000  11.2670000 -32.8650000  20.6164491  11.9726287 -33.1949374
  19.6311365  11.4396799 -31.8120928  20.3700000   9.8330000 -33.0500000
  20.5077347   9.6301160 -34.1120584  21.7000000   9.6750000 -32.3270000
  21.5629614   9.8772883 -31.2647389  22.0667191   8.6569492 -32.4581127
  22.4241491  10.3774517 -32.7396380  19.3620000   8.7790000 -32.5620000
  18.4328299   8.8767916 -33.1234082  19.7752028   7.7820442 -32.7151136
  19.1625200   8.9300685 -31.5011112  18.3120000  13.1680000 -33.4080000
  19.0900000  14.0530000 -33.7850000  17.1650000  13.4270000 -32.7610000
  16.5180388  12.6700723 -32.5918818  16.7720000  14.7780000 -32.3600000
  17.0965027  15.4942061 -33.1148814  15.2400000  14.8790000 -32.2110000
  14.9923906  15.9275168 -32.0454664  14.7940120  14.5443753 -33.1476008
  14.7310000  14.0970000 -31.1380000  13.7773750  14.1978062 -31.0928634
  17.4550000  15.2350000 -31.0720000  17.2310000  16.3750000 -30.6460000
  18.2890000  14.3760000 -30.4610000  18.3422319  13.4404698 -30.8378937
  19.0620000  14.6840000 -29.2580000  18.7835204  15.6683515 -28.8817017
  18.7850000  13.6370000 -28.1550000  19.4566228  13.8207036 -27.3163851
  17.7520353  13.7297562 -27.8196192  18.9830000  12.1780000 -28.5620000
  18.0530000  11.3440000 -29.1470000  17.0662220  11.7645637 -29.3406364
  18.6060000  10.0980000 -29.3690000  18.1326253   9.3118740 -29.7909263
  19.9040000  10.1010000 -28.9230000  20.8610000   9.0780000 -28.9290000
  20.5801055   8.1081199 -29.3395234  22.1030000   9.3640000 -28.4130000
  22.8695614   8.5892048 -28.3997363  22.4100000  10.6330000 -27.9010000
  23.3991968  10.8518232 -27.4988736  21.4560000  11.6560000 -27.8910000
  21.7445541  12.6269781 -27.4884595  20.1790000  11.3920000 -28.4070000
  20.5710000  14.7780000 -29.4940000  21.2970000  15.1810000 -28.5750000
  21.0630000  14.4210000 -30.6860000  20.4472372  13.9557142 -31.3374942
  22.4630000  14.6090000 -31.0680000  22.7512396  15.6370470 -30.8485997
  23.3860000  13.6640000 -30.2880000  23.1155704  12.6305125 -30.5044982
  24.4201681  13.8382704 -30.5850294  23.2790139  13.8508094 -29.2194704
  22.6250000  14.4050000 -32.5760000  21.7390000  14.7800000 -33.3520000
  23.7490000  13.8340000 -33.0110000  24.4949261  13.6548106 -32.3540489
  23.9740000  13.5130000 -34.4200000  23.0689961  13.7211375 -34.9907416
  25.1240000  14.3530000 -34.9990000  25.5467657  14.9762377 -34.2110005
  25.8873244  13.6685163 -35.3690242  24.6760000  15.2600000 -36.1550000
  23.4780000  15.3550000 -36.4690000  25.6420000  15.9430000 -36.7800000
  25.4072672  16.5555693 -37.5479578  26.6015086  15.8428763 -36.4809693
  24.2580000  12.0190000 -34.5670000  25.1700000  11.4910000 -33.9190000
  23.4930000  11.3420000 -35.4330000  22.8999332  11.8258537 -36.0919815
  23.4280000   9.8810000 -35.3840000  23.3220650   9.5421845 -34.3534268
  22.2190000   9.3950000 -36.1850000  21.9122458   8.4597469 -35.7167023
  21.4445630  10.1471521 -36.0346190  22.4280000   9.1690000 -37.6920000
  23.4347699   8.7718022 -37.8214185  21.6998969   8.4226348 -38.0096584
  22.2660000  10.4300000 -38.5380000  21.3035903  10.8953669 -38.3251616
  23.0672729  11.1326492 -38.3092090  22.3230000  10.1020000 -39.9610000
  22.9228164   9.3359335 -40.2320383  21.6550000  10.7490000 -40.9080000
  20.8680000  11.7710000 -40.5840000  20.7815402  12.0512206 -39.6175109
  20.3604164  12.2622024 -41.3059271  21.7640000  10.3630000 -42.1760000
  22.3548529   9.5788835 -42.4129688  21.2554274  10.8557464 -42.8961761
  24.7200000   9.2260000 -35.8780000  25.3370000   8.4250000 -35.1670000
  25.1290000   9.5440000 -37.1070000  24.5028340  10.0268533 -37.7353854
  26.4420000   9.1620000 -37.6010000  26.5141651   8.0790274 -37.7013084
  26.6570000   9.7990000 -38.9840000  27.4660198  10.5200797 -38.8672516
  26.9802072   8.9949941 -39.6452198  25.3960000  10.5190000 -39.6080000
  25.4558589  10.3204662 -40.6780944  24.5137261  10.0284949 -39.1967862
  25.2930000  12.0690000 -39.3680000  25.0780000  12.5260000 -38.2120000
  25.4070000  12.8330000 -40.3580000  27.5340000   9.5790000 -36.6240000
  28.5240000   8.8600000 -36.4600000  27.3730000  10.7440000 -35.9780000
  26.5686109  11.3235080 -36.1709457  28.3750000  11.2410000 -35.0400000
  29.3718916  11.1745604 -35.4757661  28.0770000  12.7110000 -34.7200000
  27.9865423  13.2100801 -35.6847983  27.1093096  12.7130161 -34.2183315
  29.1070000  13.4570000 -33.8510000  29.3530162  12.8145577 -33.0055151
  30.0004602  13.6223622 -34.4530659  28.5790000  14.8120000 -33.3310000
  29.1940000  15.3700000 -32.3850000  27.5500000  15.3090000 -33.8670000
  28.4070000  10.3890000 -33.7750000  29.4890000  10.0310000 -33.2910000
  27.2280000  10.0450000 -33.2330000  26.3616313  10.4080976 -33.6040320
  27.1710000   9.1960000 -32.0470000  27.8003307   9.5875918 -31.2478142
  25.7280000   9.0810000 -31.5250000  25.0936979   8.6776533 -32.3143488
  25.6790000   8.1670000 -30.3240000  26.3127437   8.5699596 -29.5340042
  24.6527535   8.0938858 -29.9640377  26.0360846   7.1764530 -30.6057958
  25.1820000  10.4290000 -31.1690000  25.1858605  11.0679373 -32.0520891
  24.1609804  10.3227987 -30.8024760  25.8011253  10.8789654 -30.3929099
  27.7510000   7.8290000 -32.3580000  28.5230000   7.2690000 -31.5670000
  27.4090000   7.2790000 -33.5230000  26.7868763   7.7475761 -34.1660381
  27.8690000   5.9410000 -33.8600000  27.6105584   5.2453328 -33.0616553
  27.2050000   5.4690000 -35.1530000  26.1635676   5.7733594 -35.2573223
  27.7804430   5.8493826 -35.9969636  27.2270000   3.9990000 -35.2560000
  28.2120000   3.2270000 -35.8090000  29.0579590   3.7504791 -36.2544467
  27.9000000   1.8960000 -35.6730000  28.4523386   1.1242343 -36.0185422
  26.7020000   1.7860000 -35.0140000  25.9710000   0.6510000 -34.6620000
  26.3730495  -0.3303946 -34.9136338  24.7790000   0.8480000 -34.0140000
  24.1813637  -0.0134850 -33.7160496  24.3030000   2.1470000 -33.7210000
  23.3510500   2.2939516 -33.2108080  25.0310000   3.2690000 -34.0730000
  24.6161528   4.2488426 -33.8365447  26.2510000   3.0980000 -34.7340000
  29.3880000   5.8920000 -33.9740000  30.0340000   4.9830000 -33.4340000
  29.9770000   6.8670000 -34.6750000  29.4275338   7.5601006 -35.1626451
  31.4260000   6.9050000 -34.8230000  31.7883379   5.9498150 -35.2030421
  31.8220000   8.0070000 -35.8110000  30.9226029   8.5977234 -35.9848679
  32.5657302   8.6198076 -35.3016550  32.3860000   7.5300000 -37.1520000
  33.4743164   7.5697827 -37.1063309  32.0672050   6.5009556 -37.3179500
  31.8870000   8.4170000 -38.3140000  30.9075561   8.0411463 -38.6098421
  31.7846668   9.4304486 -37.9259933  32.8270000   8.4280000 -39.5420000
  33.1949744   7.4078058 -39.6510832  32.2031398   8.6822419 -40.3988890
  34.0070000   9.3880000 -39.4710000  34.5854441   9.1523166 -38.6773026
  34.5518940   9.3149173 -40.3182600  33.6662345  10.3334351 -39.3703496
  32.1080000   7.0940000 -33.4770000  33.1900000   6.5490000 -33.2580000
  31.4870000   7.8440000 -32.5680000  30.6753255   8.3889258 -32.8216528
  32.0010000   7.9610000 -31.2080000  33.0221554   8.3422320 -31.2062859
  31.1000000   8.9030000 -30.3860000  30.0579907   8.6401707 -30.5683120
  31.3990000   8.7810000 -28.9100000  32.4407813   9.0441379 -28.7268310
  30.7506879   9.4553311 -28.3504737  31.2215435   7.7553929 -28.5863670
  31.2790000  10.3560000 -30.8330000  30.9021879  10.4491678 -31.8515447
  30.6930656  10.9923132 -30.1697610  32.7310000  10.7850000 -30.7910000
  33.3175266  10.1493952 -31.4543950  32.8134831  11.8222318 -31.1157243
  33.1084051  10.6925382 -29.7726110  32.1080000   6.5820000 -30.5670000
  33.1600000   6.1940000 -30.0470000  31.0370000   5.8270000 -30.5740000
  30.1702528   6.1875953 -30.9465852  31.0270000   4.4930000 -29.9480000
  31.4389345   4.5441031 -28.9401321  29.5980000   3.9870000 -29.8630000
  29.2244705   3.8752879 -30.8808877  29.6195733   3.0123649 -29.3754335
  28.6860000   4.9180000 -29.0900000  28.6675043   5.8665804 -29.6266134
  27.6904010   4.4744666 -29.1027577  29.1850000   5.2150000 -27.3700000
  28.7380000   6.9390000 -27.2060000  27.6687208   7.0559926 -27.3822205
  28.9798445   7.2835322 -26.2005601  29.2926313   7.5296369 -27.9351319
  31.9500000   3.5080000 -30.6790000  32.5380000   2.6910000 -29.9990000
  32.0440000   3.5750000 -32.0050000  31.4505963   4.1628433 -32.5728131
  33.0070000   2.7100000 -32.6770000  32.8634266   1.6790013 -32.3536928
  32.8260000   2.7760000 -34.1890000  32.7622931   3.8309132 -34.4558312
  33.7004888   2.3333114 -34.6658608  31.5740000   2.0580000 -34.6620000
  30.7188031   2.3608462 -34.0578284  31.3330000   2.4230000 -36.0750000
  32.1876302   2.1200300 -36.6799092  30.4368421   1.9167754 -36.4338015
  31.1966801   3.5015509 -36.1540264  31.7400000   0.5560000 -34.5230000
  31.9188593   0.3049100 -33.4775037  30.8340254   0.0564976 -34.8662326
  32.5865190   0.2262089 -35.1252810  34.4220000   3.0930000 -32.2900000
  35.2720000   2.2260000 -32.0440000  34.6880000   4.3930000 -32.2070000
  34.0123326   5.1005674 -32.4578411  36.0280000   4.8200000 -31.8350000
  36.7671243   4.2647705 -32.4125073  36.2090000   6.3130000 -32.1160000
  35.3226309   6.8484715 -31.7758246  37.0818063   6.6733034 -31.5714905
  36.4100000   6.5970000 -33.6030000  36.7990000   5.7080000 -34.3660000
  36.1470000   7.8310000 -34.0190000  36.2647314   8.0678852 -34.9937433
  35.8305336   8.5265759 -33.3586032  36.3190000   4.4820000 -30.3870000
  37.4780000   4.2270000 -30.0310000  35.3020000   4.3960000 -29.5510000
  34.3645792   4.6111545 -29.8593020  35.4960000   3.9510000 -28.1530000
  36.2509046   4.5663515 -27.6635506  34.1880000   4.0840000 -27.3860000
  33.6238065   4.8468840 -27.9224634  33.6945869   3.1190367 -27.5021438
  34.2520000   4.4430000 -25.9210000  34.9354899   3.7741406 -25.3979614
  34.5878044   5.4727864 -25.7990270  32.8740000   4.2960000 -25.3490000
  32.5420617   5.2515894 -24.9430877  32.1853561   3.9749140 -26.1305195
  32.9010000   3.2700000 -24.2540000  32.0139815   3.3491164 -23.6254784
  32.9647317   2.2630892 -24.6665143  34.1010000   3.5460000 -23.4460000
  34.0419418   4.4788237 -23.0633097  34.1608771   2.8761221 -22.6924893
  34.9230756   3.4723208 -24.0281187  35.9040000   2.4880000 -28.1460000
  36.8240000   2.1620000 -27.4350000  35.2080000   1.6560000 -28.9030000
  34.4067309   1.9614141 -29.4366567  35.5390000   0.2380000 -28.9050000
  35.5067600  -0.1623348 -27.8916926  34.5200000  -0.5130000 -29.7590000
  33.5325193  -0.2358276 -29.3900061  34.6389522  -0.1547186 -30.7815384
  34.6620000  -2.0040000 -29.7330000  35.3496885  -2.3268036 -30.5146542
  35.0659902  -2.2780975 -28.7584428  33.3340000  -2.6720000 -29.9290000
  32.5370000  -2.6300000 -28.9690000  33.0740000  -3.2070000 -31.0350000
  36.9730000   0.0010000 -29.3830000  37.6830000  -0.8500000 -28.8330000
  37.4340000   0.7660000 -30.3780000  36.8436143   1.4326721 -30.8545422
  38.8170000   0.6060000 -30.8410000  38.9684201  -0.4154432 -31.1900344
  39.1270000   1.5690000 -31.9940000  38.9259774   2.5743950 -31.6240406
  40.1908169   1.4673282 -32.2086077  38.3250000   1.3270000 -33.2710000
  38.6021260   0.3549265 -33.6788912  37.2636973   1.3270026 -33.0225274
  38.6040000   2.4100000 -34.3060000  38.5032382   3.3841600 -33.8275040
  39.6237768   2.2890007 -34.6713955  37.6340000   2.3160000 -35.4720000
  37.7662030   1.3538608 -35.9668850  36.6149106   2.3919619 -35.0928092
  37.8860000   3.4240000 -36.4560000  38.8301206   3.3535374 -36.8078110
  37.2340651   3.3472900 -37.2235913  37.7631313   4.3156262 -35.9977369
  39.8320000   0.8220000 -29.7220000  40.8780000   0.1710000 -29.7020000
  39.5630000   1.7320000 -28.7920000  38.7078762   2.2690167 -28.8138127
  40.5300000   2.0120000 -27.7330000  41.5396460   2.0183216 -28.1436995
  40.2550000   3.3710000 -27.0930000  41.1463301   3.7008475 -26.5593038
  39.9000000   4.3830000 -28.1500000  39.0084325   4.0540449 -28.6838498
  39.7064228   5.3472739 -27.6801033  40.7278054   4.4812784 -28.8522679
  39.1710000   3.2540000 -26.1670000  38.9993729   4.1089902 -25.7655821
  40.5460000   0.9590000 -26.6340000  41.4770000   0.9580000 -25.8220000
  39.5470000   0.0780000 -26.5780000  38.7938694   0.1591668 -27.2460611
  39.4700000  -0.9810000 -25.5710000  40.0843893  -0.7145088 -24.7109956
  38.0360000  -1.1770000 -25.1020000  37.3784282  -0.9954414 -25.9521382
  37.9640697  -2.2231757 -24.8046074  37.6230000  -0.3010000 -23.9540000
  37.3450000   1.0440000 -24.1460000  37.4372076   1.4635130 -25.1478014
  36.9530000   1.8570000 -23.0830000  36.7488055   2.9157363 -23.2426369
  36.8260000   1.3130000 -21.8230000  36.4370000   2.0960000 -20.7620000
  36.2783304   3.0100893 -21.0087072  37.0880000  -0.0270000 -21.6180000
  36.9854235  -0.4582371 -20.6222023  37.4820000  -0.8240000 -22.6810000
  37.6867894  -1.8826897 -22.5218228  40.0170000  -2.2670000 -26.1740000
  39.3300000  -2.9440000 -26.9380000  41.2410000  -2.6200000 -25.8150000
  41.7720842  -2.0610237 -25.1626240  41.8710000  -3.7990000 -26.3840000
  41.5153936  -3.9504758 -27.4031655  43.3890000  -3.6360000 -26.4160000
  43.6483622  -3.5027335 -25.3657284  43.8177248  -4.5697281 -26.7799325
  43.9440000  -2.4730000 -27.2270000  43.9075154  -1.5630173 -26.6280833
  45.3940000  -2.7670000 -27.6200000  45.4312380  -3.6766533 -28.2193689
  45.7897902  -1.9336036 -28.2004321  45.9948996  -2.9003818 -26.7204282
  43.0880000  -2.2120000 -28.4500000  42.0722431  -1.9690388 -28.1380588
  43.5039313  -1.3769765 -29.0137714  43.0712638  -3.1019913 -29.0790741
  41.5080000  -5.0510000 -25.5940000  41.4830000  -5.0420000 -24.3590000
  41.2350000  -6.1360000 -26.3160000  41.0743645  -6.0379219 -27.3083086
  41.1130000  -7.4600000 -25.7250000  41.4400801  -7.4200665 -24.6859990
  39.6750000  -7.9650000 -25.7640000  39.3188389  -7.8487778 -26.7875922
  39.6966597  -9.0236549 -25.5053871  38.7360000  -7.2280000 -24.8120000
  38.0734240  -7.9584742 -24.3477787  39.3368121  -6.7427532 -24.0428041
  37.9040000  -6.1800000 -25.5430000  38.5456310  -5.5695156 -26.1783877
  37.1439990  -6.6658776 -26.1548994  37.2420000  -5.3130000 -24.5780000
  37.4857927  -5.4362493 -23.6056451  36.3430000  -4.3820000 -24.8950000
  35.8080000  -3.6430000 -23.9320000  36.0853509  -3.7918011 -22.9722945
  35.1257758  -2.9349472 -24.1629350  35.9700000  -4.1850000 -26.1650000
  36.3733340  -4.7484950 -26.8997756  35.2868559  -3.4737217 -26.3829360
  42.0300000  -8.4140000 -26.4710000  42.2550000  -8.2600000 -27.6710000
  42.5780000  -9.3890000 -25.7550000  42.2987850  -9.5245728 -24.7938765
  43.6200000 -10.2560000 -26.3030000  43.7660716 -10.0248996 -27.3581563
  44.9440000 -10.0580000 -25.5730000  45.2636301  -9.0269001 -25.7238935
  44.7739076 -10.2333577 -24.5107297  46.0260000 -11.0030000 -26.0760000
  45.8710000 -11.5860000 -27.1770000  47.0380000 -11.1630000 -25.3660000
  43.1970000 -11.7160000 -26.2160000  43.1940000 -12.3040000 -25.1270000
  42.9070000 -12.3100000 -27.3740000  42.9586478 -11.7703980 -28.2262098
  42.4750000 -13.7000000 -27.4610000  41.5707779 -13.8685641 -26.8761344
  42.1740000 -13.9980000 -28.9130000  42.8362112 -14.7877176 -29.2678544
  41.1378805 -14.3218412 -29.0114042  42.3910000 -12.7550000 -29.7340000
  41.4532494 -12.2037161 -29.8033599  43.1419419 -12.1335960 -29.2461011
  42.8610000 -13.0750000 -31.1180000  42.7760000 -14.2270000 -31.5690000
  43.3640000 -12.0590000 -31.8170000  43.6976885 -12.2134002 -32.7576987
  43.4094448 -11.1387922 -31.4031719  43.4940000 -14.7090000 -26.9310000
  43.1260000 -15.8650000 -26.6960000  44.7680000 -14.3330000 -26.7670000
  45.0540431 -13.3931228 -27.0013279  45.7900000 -15.2760000 -26.3120000
  45.3610453 -16.2767478 -26.2610010  46.9890000 -15.3050000 -27.2670000
  47.4736185 -14.3304059 -27.3253998  47.7048825 -16.0453551 -26.9099473
  46.6360000 -15.6920000 -28.6680000  46.6540000 -14.7920000 -29.7130000
  46.2790000 -15.4020000 -30.8230000  46.2302341 -14.8584230 -31.7665279
  46.0150000 -16.6650000 -30.5350000  45.7057445 -17.3703522 -31.1884058
  46.2290000 -16.8730000 -29.1920000  46.0621030 -17.8596915 -28.7599277
  46.2800000 -14.9710000 -24.9040000  47.3330000 -15.4770000 -24.5020000
  45.5520000 -14.1500000 -24.1420000  44.6460891 -13.8025397 -24.4225284
  46.1330000 -13.6460000 -22.8990000  47.0782982 -13.1476457 -23.1138337
  45.1890000 -12.6380000 -22.2180000  45.7044348 -12.0595659 -21.4512927
  44.8157873 -11.9654324 -22.9903115  43.9740000 -13.2520000 -21.5540000
  44.0870000 -13.9570000 -20.3610000  45.0729172 -14.0736243 -19.9110379
  42.9740000 -14.5070000 -19.7440000  43.0827051 -15.0730888 -18.8188906
  41.7280000 -14.3360000 -20.3040000  40.8481636 -14.7624440 -19.8221978
  41.5940000 -13.6210000 -21.4810000  40.6085151 -13.4846289 -21.9263342
  42.7130000 -13.0780000 -22.0940000  42.6057057 -12.5045953 -23.0147578
  46.5050000 -14.7840000 -21.9590000  47.4310000 -14.6420000 -21.1510000
  45.8140000 -15.9240000 -22.0680000  45.0483479 -16.0099188 -22.7210652
  46.1060000 -17.0520000 -21.1940000  46.0854442 -16.7329666 -20.1519375
  45.0640000 -18.1430000 -21.3890000  44.8984987 -18.2289034 -22.4629316
  45.4436112 -19.0892748 -21.0035660  43.7540000 -17.8060000 -20.7010000
  43.3058886 -16.9249317 -21.1603644  42.8210000 -18.9830000 -20.8550000
  43.2682557 -19.8643990 -20.3954382  41.8719863 -18.7613341 -20.3668013
  42.6482267 -19.1742044 -21.9140990  44.0220000 -17.4880000 -19.2430000
  44.6995008 -16.6368582 -19.1748117  43.0832682 -17.2453086 -18.7450194
  44.4761779 -18.3528894 -18.7594839  47.5020000 -17.6220000 -21.4110000
  48.0050000 -18.3330000 -20.5330000  48.1320000 -17.3320000 -22.5560000
  47.6433171 -16.8968397 -23.3253659  49.5290000 -17.7060000 -22.7470000
  49.6479108 -18.7817902 -22.6180242  49.9850000 -17.3300000 -24.1550000
  49.6475743 -16.3116736 -24.3480142  51.0745531 -17.3593411 -24.1656430
  49.4440000 -18.2540000 -25.2300000  49.8940923 -19.2349966 -25.0778044
  48.3634923 -18.3274925 -25.1067070  49.7610000 -17.7640000 -26.6320000
  50.5020000 -16.7610000 -26.7640000  49.2620000 -18.3760000 -27.6070000
  50.4220000 -17.0590000 -21.6980000  51.4420000 -17.6380000 -21.3040000
  50.0410000 -15.8820000 -21.2090000  49.2592420 -15.3915223 -21.6193479
  50.7770000 -15.2310000 -20.1310000  51.8472460 -15.2451754 -20.3370867
  50.3200000 -13.7760000 -20.0200000  49.2588333 -13.7714422 -19.7709945
  50.8834983 -13.3035357 -19.2154211  50.5400000 -13.0070000 -21.3110000
  51.6141099 -12.9242702 -21.4769656  50.0895929 -13.5739273 -22.1257569
  49.9400000 -11.6080000 -21.3020000  49.3460000 -11.1710000 -20.3040000
  50.0930000 -10.8950000 -22.4240000  49.7167218  -9.9593452 -22.4793737
  50.5840609 -11.2957581 -23.2103546  50.6300000 -15.9450000 -18.7900000
  51.2930000 -15.5610000 -17.8210000  49.7970000 -16.9740000 -18.7090000
  49.2942181 -17.2548411 -19.5387216  49.5290000 -17.6870000 -17.4620000
  50.2662231 -17.4068066 -16.7096085  48.1360000 -17.3360000 -16.9360000
  47.3920627 -17.7397630 -17.6227546  47.9645922 -17.7386853 -15.9377195
  47.8860000 -15.8610000 -16.8520000  48.1320000 -15.1240000 -15.7100000
  47.8390000 -13.8550000 -15.9390000  47.9578386 -13.1081288 -15.1540416
  47.4230000 -13.7410000 -17.1900000  47.1341074 -12.8864089 -17.6442191
  47.4450000 -14.9800000 -17.7830000  47.1369905 -15.0922180 -18.8225376
  49.6750000 -19.1790000 -17.7310000  48.6810000 -19.9180000 -17.7760000
  50.9140000 -19.6520000 -17.9350000  52.1920000 -18.9220000 -17.8420000
  52.4994987 -18.8559976 -16.7983581  52.0692185 -17.9180148 -18.2482480
  53.1200000 -19.7590000 -18.6620000  54.1438272 -19.6447396 -18.3058799
  53.0653899 -19.4644063 -19.7100142  52.6300000 -21.1590000 -18.4750000
  52.9806469 -21.5750882 -17.5305338  52.9289025 -21.8140914 -19.2932984
  51.1040000 -21.0190000 -18.4480000  50.6843699 -21.0485897 -19.4535513
  50.4500000 -22.0910000 -17.5960000  50.0230000 -23.1210000 -18.1310000
  50.3420000 -21.8810000 -16.2890000  50.8101364 -21.0999390 -15.8520888
  49.6130000 -22.8140000 -15.4380000  49.8942496 -23.8392099 -15.6787126
  49.9490000 -22.5460000 -13.9610000  50.0126140 -21.4590206 -13.9107176
  49.1149132 -22.8893187 -13.3490102  51.2580000 -23.1610000 -13.4350000
  51.2345228 -23.1858175 -12.3455351  51.4100000 -24.5820000 -13.9730000
  51.4340226 -24.5579461 -15.0624692  52.3376557 -25.0153227 -13.5991189
  50.5669738 -25.1884966 -13.6419877  52.4960000 -22.3340000 -13.7810000
  52.4025467 -21.3392913 -13.3452013  53.3839807 -22.8234247 -13.3809313
  52.5855718 -22.2486935 -14.8639583  48.0940000 -22.7690000 -15.6500000
  47.3710000 -23.5060000 -14.9690000  47.5950000 -21.9520000 -16.5780000
  48.2264260 -21.3707183 -17.1104586  46.1650000 -21.8180000 -16.8180000
  45.6185833 -22.4021446 -16.0775251  45.7140000 -20.3540000 -16.7180000
  46.4178831 -19.8490735 -17.3795867  44.7097470 -20.2851167 -17.1361281
  45.7400000 -19.6820000 -15.3320000  46.7772787 -19.5529500 -15.0229695
  45.0540000 -18.3300000 -15.3760000  44.0164787 -18.4582969 -15.6845260
  45.0845145 -17.8741304 -14.3863776  45.5673070 -17.6845665 -16.0887636
  45.1120000 -20.5530000 -14.2490000  45.6583992 -21.4933319 -14.1760398
  45.1562629 -20.0324880 -13.2923343  44.0718619 -20.7565783 -14.5034946
  45.7890000 -22.3860000 -18.1830000  46.6040000 -22.4160000 -19.1140000
  44.5350000 -22.8310000 -18.2840000  43.9739963 -22.7050209 -17.4536366
  43.9330000 -23.4850000 -19.4260000  44.6020311 -23.4138146 -20.2835717
  43.6690000 -24.9790000 -19.1280000  43.1750089 -25.0235356 -18.1573875
  42.9870658 -25.3377090 -19.8989693  44.9260000 -25.8640000 -19.1040000
  45.5751025 -25.5476582 -18.2874863  44.6124432 -26.8949109 -18.9396624
  45.7190000 -25.7960000 -20.4150000  45.1850000 -26.0580000 -21.5070000
  46.9970000 -25.4270000 -20.3090000  47.5714800 -25.3635361 -21.1372792
  47.3839638 -25.2128620 -19.4009772  42.6260000 -22.7920000 -19.7910000
  41.8980000 -22.3440000 -18.8980000  42.2960000 -22.6980000 -21.0850000
  43.0860000 -23.1180000 -22.2550000  42.9949633 -24.1951928 -22.3945285
  44.1340772 -22.8588719 -22.1050471  42.4520000 -22.3300000 -23.3820000
  42.5697550 -22.8639269 -24.3249501  42.9180646 -21.3478011 -23.4605525
  41.0090000 -22.2080000 -22.9990000  40.4455648 -23.1111592 -23.2333997
  40.5354371 -21.3505848 -23.4772018  41.0540000 -22.0010000 -21.4790000
  41.1884630 -20.9488163 -21.2281466  39.7890000 -22.5260000 -20.8060000
  38.9070000 -21.7220000 -20.4780000  39.6590000 -23.8400000 -20.5900000
  40.3455413 -24.5008364 -20.9247472  38.4640000 -24.3590000 -19.9220000
  37.5755239 -24.1136726 -20.5038280  38.5560000 -25.8860000 -19.7870000
  38.6157506 -26.2881980 -20.7983189  39.4837670 -26.0995657 -19.2562099
  37.3750000 -26.5420000 -19.0420000  37.6248691 -27.5873758 -18.8607385
  37.2462988 -26.0291855 -18.0888162  36.0670000 -26.4600000 -19.8490000
  35.7857181 -25.4102198 -19.9323128  36.2564770 -26.8648419 -20.8431332
  34.9230000 -27.2460000 -19.1850000  35.3276629 -28.1727854 -18.7782848
  34.5110857 -26.6437747 -18.3752158  33.8380000 -27.5650000 -20.1730000
  34.2193868 -28.1233944 -20.9232263  33.1023170 -28.0798004 -19.7105597
  33.4626030 -26.7063420 -20.5496731  38.2480000 -23.7080000 -18.5520000
  37.1000000 -23.5340000 -18.1170000  39.3290000 -23.3410000 -17.8530000
  40.2679262 -23.5067490 -18.1862331  39.1590000 -22.7320000 -16.5370000
  38.5447998 -23.3815475 -15.9133452  40.5040000 -22.5230000 -15.8470000
  40.9697386 -21.6586129 -16.3203093  40.2900707 -22.2936406 -14.8030994
  41.4370000 -23.6960000 -15.9200000  40.8851694 -24.6102195 -15.7013985
  41.8602748 -23.7586310 -16.9225058  42.7540000 -23.5120000 -14.7400000
  44.1460000 -23.8980000 -15.7630000  44.1946721 -23.1925658 -16.5925135
  45.0605984 -23.8291595 -15.1740421  44.0411290 -24.9103107 -16.1532953
  38.4220000 -21.4110000 -16.6530000  37.5290000 -21.1210000 -15.8530000
  38.7860000 -20.5940000 -17.6450000  39.5942712 -20.7897458 -18.2181322
  38.0540000 -19.3550000 -17.8820000  38.0954376 -18.7233540 -16.9946413
  38.6700000 -18.5940000 -19.0510000  39.7092064 -18.3955171 -18.7887905
  38.6341947 -19.2565485 -19.9157818  37.9730000 -17.2840000 -19.3870000
  36.9282291 -17.4811168 -19.6272075  38.0278440 -16.6143097 -18.5287407
  38.6560000 -16.6310000 -20.5860000  39.6573798 -16.3250883 -20.2830882
  38.7282589 -17.3717219 -21.3823725  37.9470000 -15.4670000 -21.0950000
  38.3108807 -14.5565898 -20.8524231  36.8660000 -15.5330000 -21.8600000
  36.3600000 -16.7140000 -22.1910000  36.8006351 -17.5598513 -21.8586202
  35.5365106 -16.7617317 -22.7738264  36.2890000 -14.4170000 -22.2830000
  36.6754594 -13.5215077 -22.0206210  35.4655852 -14.4673586 -22.8657098
  36.5840000 -19.6390000 -18.1390000  35.7030000 -18.9700000 -17.5820000
  36.3020000 -20.6410000 -18.9730000  37.0314188 -21.1208288 -19.4807517
  34.9210000 -21.0260000 -19.2210000  34.3993583 -20.2005940 -19.7054523
  34.8740000 -22.2470000 -20.1480000  35.3845106 -23.0845782 -19.6726667
  33.8358969 -22.5172975 -20.3413429  35.3681436 -22.0080971 -21.0897254
  34.1950000 -21.3120000 -17.9110000  33.0870000 -20.8100000 -17.6770000
  34.8120000 -22.1200000 -17.0390000  35.7227464 -22.5046920 -17.2455244
  34.1470000 -22.5370000 -15.8060000  33.1269107 -22.8840508 -15.9705383
  34.9600000 -23.6450000 -15.1060000  36.0086780 -23.3486881 -15.0820405
  34.4580000 -23.8700000 -13.6690000  33.4094450 -24.1668099 -13.6921730
  35.0472087 -24.6560058 -13.1966350  34.5612265 -22.9467990 -13.0987865
  34.9300000 -24.9320000 -15.9340000  33.8876077 -25.2370588 -16.0259684
  35.3270442 -24.6947829 -16.9210073  35.7340000 -26.0610000 -15.3250000
  35.3372243 -26.2991079 -14.3380990  35.6678097 -26.9410821 -15.9646668
  36.7766610 -25.7568307 -15.2331359  33.9210000 -21.3400000 -14.8860000
  32.8530000 -21.2030000 -14.2690000  34.9180000 -20.4580000 -14.7780000
  35.7981036 -20.6136820 -15.2484043  34.7810000 -19.2720000 -13.9450000
  34.5355918 -19.5635840 -12.9237984  36.0890000 -18.4790000 -13.9260000
  36.7986449 -19.1442710 -13.4341486  36.4371012 -18.2594482 -14.9353179
  35.9760000 -17.1730000 -13.1290000  35.1226017 -16.6073820 -13.5030168
  35.7850000 -17.4570000 -11.6310000  36.6382847 -18.0222276 -11.2561375
  35.7077202 -16.5145021 -11.0889425  34.8733146 -18.0360159 -11.4837900
  37.1780000 -16.3010000 -13.3890000  37.2345970 -16.0669340 -14.4520660
  37.0873005 -15.3767696 -12.8183224  38.0824022 -16.8279313 -13.0848634
  33.6430000 -18.3850000 -14.4450000  32.7070000 -18.0760000 -13.6950000
  33.7260000 -17.9530000 -15.7150000  34.5345651 -18.1858543 -16.2736597
  32.6970000 -17.1010000 -16.3070000  32.6567536 -16.1470034 -15.7812910
  33.0120000 -16.8360000 -17.7720000  33.1274729 -17.8232604 -18.2193055
  32.1409877 -16.3421434 -18.2027473  34.2520000 -16.0070000 -18.0500000
  35.1327171 -16.5441953 -17.6980633  34.3760000 -15.7550000 -19.5460000
  33.4958003 -15.2173968 -19.8986049  35.2675908 -15.1593820 -19.7419740
  34.4535307 -16.7075084 -20.0702301  34.1710000 -14.7020000 -17.3070000
  34.1008205 -14.8963898 -16.2367725  35.0641448 -14.1113098 -17.5106630
  33.2892424 -14.1510977 -17.6342753  31.3140000 -17.7230000 -16.1760000
  30.3380000 -17.0220000 -15.8880000  31.2130000 -19.0370000 -16.4060000
  32.0132890 -19.5684687 -16.7177335  29.9380000 -19.7300000 -16.2570000
  29.1806913 -19.2582530 -16.8831290  30.0840000 -21.1870000 -16.6830000
  30.3479697 -21.1846848 -17.7405509  30.8870776 -21.6500292 -16.1096150
  28.8100000 -21.9690000 -16.4850000  27.8640000 -21.7670000 -17.2790000
  28.7450000 -22.7630000 -15.5230000  29.4320000 -19.6600000 -14.8260000
  28.2210000 -19.5400000 -14.5940000  30.3430000 -19.7590000 -13.8560000
  31.3050409 -19.9781668 -14.0717371  29.9630000 -19.6230000 -12.4570000
  29.1338056 -20.2895853 -12.2199348  31.1510000 -19.9940000 -11.5810000
  31.4034597 -21.0484441 -11.6928525  32.0020316 -19.3832287 -11.8823366
  30.9510000 -19.7570000 -10.1300000  30.1680000 -20.4780000  -9.2750000
  29.6120976 -21.3139869  -9.6994975  30.2600000 -19.9630000  -8.0060000
  29.7650002 -20.3030162  -7.1939263  31.1230000 -18.8990000  -8.0240000
  31.5330000 -18.0580000  -6.9950000  31.1408374 -18.2345187  -5.9934271
  32.4100000 -17.0540000  -7.3080000  32.7527614 -16.3767089  -6.5257652
  32.8770000 -16.8760000  -8.6070000  33.5777135 -16.0757002  -8.8449501
  32.4670000 -17.7080000  -9.6350000  32.8566346 -17.5227695 -10.6359871
  31.5730000 -18.7410000  -9.3460000  29.4700000 -18.2100000 -12.1580000
  28.5030000 -18.0270000 -11.4060000  30.0870000 -17.2000000 -12.7690000
  30.9062102 -17.3370392 -13.3436427  29.6330000 -15.8380000 -12.5280000
  29.5462989 -15.6554449 -11.4568997  30.6360000 -14.8470000 -13.1120000
  30.7689316 -15.1881191 -14.1386773  30.2033521 -13.8465474 -13.1152321
  31.9960000 -14.8130000 -12.4050000  32.4197718 -15.8171921 -12.3942073
  32.9320000 -13.8810000 -13.1300000  32.5090933 -12.8764443 -13.1408014
  33.8953001 -13.8636572 -12.6202423  33.0696749 -14.2277272 -14.1541710
  31.8680000 -14.4200000 -10.9350000  31.2349820 -15.1419932 -10.4191381
  32.8556634 -14.4088353 -10.4740254  31.4218554 -13.4282426 -10.8610325
  28.2260000 -15.6100000 -13.0780000  27.4180000 -14.9150000 -12.4500000
  27.9020000 -16.1940000 -14.2400000  28.5801085 -16.6914159 -14.7993260
  26.5300000 -16.0900000 -14.7420000  26.2775549 -15.0383045 -14.8773043
  26.3590000 -16.8090000 -16.0790000  26.6289920 -17.8498608 -15.9006398
  25.2987792 -16.7460701 -16.3240952  27.1740000 -16.2680000 -17.2290000
  26.9464594 -15.2119304 -17.3740626  28.2358042 -16.3838340 -17.0116145
  26.7750000 -17.1740000 -18.7390000  28.1070000 -16.6630000 -19.8100000
  29.0604512 -16.9536792 -19.3689384  27.9960683 -17.1422554 -20.7826814
  28.0795064 -15.5803910 -19.9337055  25.5440000 -16.6750000 -13.7500000
  24.4690000 -16.1040000 -13.5140000  25.8750000 -17.8300000 -13.1720000
  26.7058879 -18.3493073 -13.4170398  24.9550000 -18.4150000 -12.2080000
  23.9608879 -18.4953776 -12.6477496  25.4230000 -19.8100000 -11.8020000
  25.6075443 -20.3834559 -12.7104002  26.3530792 -19.7063166 -11.2431597
  24.3970000 -20.5330000 -10.9470000  24.4930215 -20.1602527  -9.9272254
  23.4133722 -20.2721233 -11.3375366  24.5590000 -22.0460000 -10.9510000
  23.6480000 -22.7170000 -10.4180000  25.5720000 -22.5640000 -11.4820000
  24.7970000 -17.5010000 -10.9960000  23.6740000 -17.2620000 -10.5270000
  25.9090000 -16.9570000 -10.4920000  26.8233394 -17.2587421 -10.7970155
  25.8280000 -15.9620000  -9.4230000  25.3609655 -16.3712447  -8.5271781
  27.2320000 -15.4550000  -9.0570000  27.7455163 -15.1208813  -9.9585348
  27.1140000 -14.3210000  -8.1060000  26.6009610 -14.6544889  -7.2039595
  28.1088091 -13.9598981  -7.8451153  26.5454726 -13.5148848  -8.5697419
  28.0530000 -16.5850000  -8.4590000  28.1418671 -17.3936061  -9.1845073
  29.0463722 -16.2168063  -8.2025927  27.5605764 -16.9563988  -7.5602883
  24.9100000 -14.8140000  -9.8370000  24.0270000 -14.3940000  -9.0820000
  25.0970000 -14.2940000 -11.0480000  25.8585481 -14.5943666 -11.6395435
  24.2400000 -13.2130000 -11.5200000  24.3392953 -12.3443342 -10.8691088
  24.6460000 -12.8100000 -12.9380000  24.8074836 -13.6740074 -13.5826033
  23.9197516 -12.1422600 -13.4014507  26.1960000 -11.9150000 -12.9100000
  26.2668678 -11.7185832 -14.2235054  22.7730000 -13.6050000 -11.4640000
  21.9310000 -12.8230000 -11.0020000  22.4440000 -14.8150000 -11.9170000
  23.1198524 -15.4442465 -12.3261109  21.0410000 -15.2150000 -11.9120000
  20.4342479 -14.4408818 -12.3817788  20.8540000 -16.5240000 -12.6900000
  20.9511619 -16.2960390 -13.7514578  21.6509073 -17.2047724 -12.3906879
  19.5010000 -17.1810000 -12.4330000  19.6276214 -17.8593004 -11.5892131
  18.8124303 -16.3825524 -12.1564996  18.9380000 -17.9470000 -13.6180000
  17.7480000 -17.7310000 -13.9420000  19.6670000 -18.7560000 -14.2330000
  20.5040000 -15.3310000 -10.4870000  19.4070000 -14.8460000 -10.1920000
  21.2720000 -15.9450000  -9.5830000  22.1526053 -16.3639605  -9.8458799
  20.8250000 -16.0820000  -8.1960000  19.8939165 -16.6453700  -8.1343806
  21.8900000 -16.7990000  -7.3500000  22.8572234 -16.3188492  -7.4984359
  21.5090000 -16.7210000  -5.8940000  20.5420277 -17.2013879  -5.7446917
  22.2631371 -17.2289255  -5.2928433  21.4458752 -15.6761888  -5.5898840
  22.0280000 -18.2350000  -7.7860000  22.3249710 -18.2700680  -8.8341796
  22.7856496 -18.7287909  -7.1775287  21.0733289 -18.7462232  -7.6620854
  20.5000000 -14.7190000  -7.6030000  19.4980000 -14.5470000  -6.9000000
  21.3640000 -13.7400000  -7.8460000  22.2023025 -13.9431231  -8.3714420
  21.1850000 -12.3950000  -7.3280000  20.5671620 -12.4209638  -6.4303913
  22.5360000 -11.7850000  -6.9720000  23.2382669 -11.9455189  -7.7900184
  22.3753195 -10.7154738  -6.8363699  23.0960000 -12.3690000  -5.7120000
  22.7560000 -11.8450000  -4.4730000  22.0790508 -10.9916115  -4.4334104
  23.2580000 -12.3840000  -3.3030000  22.9818792 -11.9545733  -2.3399570
  24.1070000 -13.4790000  -3.3560000  24.6110000 -14.0190000  -2.1900000
  24.3095012 -13.5595405  -1.4028564  24.4560000 -14.0240000  -4.5770000
  25.1288368 -14.8799907  -4.6286815  23.9390000 -13.4690000  -5.7520000
  24.1974241 -13.9013779  -6.7186263  20.4490000 -11.4920000  -8.2970000
  20.3630000 -10.2850000  -8.0610000  19.9300000 -12.0430000  -9.3850000
  20.1689557 -12.9934557  -9.6291996  19.0890000 -11.2840000 -10.3030000
  18.9016427 -11.8688167 -11.2035475  17.7450000 -10.9540000  -9.6450000
  17.9528882 -10.4173259  -8.7193312  17.1944081 -10.3042508 -10.3252754
  16.8970000 -12.2110000  -9.3330000  16.4726420 -12.5652445 -10.2724317
  17.5668176 -12.9698150  -8.9284677  15.7640000 -11.9400000  -8.3290000
  16.2066301 -11.8852349  -7.3344255  15.3186843 -10.9776731  -8.5814288
  14.6660000 -13.0390000  -8.3470000  13.7680980 -12.5714892  -7.9428883
  14.5059565 -13.2848634  -9.3967792  14.9660000 -14.2980000  -7.5770000
  15.1139080 -14.0704507  -6.6041463  14.1875387 -14.9362717  -7.6588973
  15.7977400 -14.7315888  -7.9515778  19.8020000 -10.0240000 -10.7880000
  19.2050000  -8.9540000 -10.8900000  21.0920000 -10.1530000 -11.1000000
  21.5668762 -11.0260209 -10.9199267  21.8640000  -9.0480000 -11.6600000
  21.5281935  -8.1054620 -11.2276168  23.3470000  -9.2250000 -11.3510000
  23.6578506 -10.0481531 -11.9943430  23.8846827  -8.3201436 -11.6342528
  23.6610000  -9.5690000  -9.8980000  23.2248326 -10.5384876  -9.6572665
  25.1600000  -9.6240000  -9.6880000  25.5968484  -8.6546644  -9.9281059
  25.3728774  -9.8702429  -8.6477364  25.5905561 -10.3867295 -10.3368186
  23.0180000  -8.5760000  -8.9490000  21.9365176  -8.5914586  -9.0841155
  23.2591109  -8.8465958  -7.9210191  23.3955836  -7.5752520  -9.1588406
  21.6580000  -8.9450000 -13.1750000  21.2250000  -9.8900000 -13.8360000
  21.9930000  -7.7830000 -13.7250000  22.3603465  -7.0280110 -13.1636200
  21.8000000  -7.5530000 -15.1510000  20.8306301  -7.9421076 -15.4624746
  21.8460000  -6.0580000 -15.4550000  22.7374697  -5.6015704 -15.0248220
  21.8470003  -5.9087581 -16.5347342  20.6770000  -5.2990000 -14.9200000
  19.3980000  -5.4760000 -15.4020000  18.5680000  -4.6820000 -14.7510000
  17.5029626  -4.6755359 -14.9828459  19.2670000  -3.9920000 -13.8670000
  18.8958177  -3.3086143 -13.2225564  20.5920000  -4.3510000 -13.9600000
  21.3318145  -3.8762407 -13.3155008  22.8560000  -8.2740000 -15.9880000
  23.9990000  -8.4640000 -15.5690000  22.4580000  -8.6720000 -17.1980000
  21.4819425  -8.6645069 -17.4575284  23.4270000  -9.1730000 -18.1660000
  23.8482914 -10.1154856 -17.8162376  22.7490000  -9.4120000 -19.5200000
  22.3845880  -8.4456549 -19.8685401  23.5178528  -9.7769333 -20.2010207
  21.5910000 -10.4080000 -19.4790000  21.9808037 -11.3607767 -19.1207116
  20.8495753 -10.0312976 -18.7743818  20.9380000 -10.6070000 -20.8480000
  20.6505265  -9.6412478 -21.2636690  21.6385214 -11.0985383 -21.5230995
  19.7470000 -11.4360000 -20.7270000  18.8595971 -10.9571698 -20.6692320
  19.7550000 -12.7660000 -20.6820000  20.8970000 -13.4370000 -20.7680000
  21.7677148 -12.9351367 -20.8684441  20.8900054 -14.4463551 -20.7326016
  18.6170000 -13.4360000 -20.5570000  17.7428929 -12.9336965 -20.4959417
  18.6298656 -14.4453602 -20.5234561  24.5780000  -8.1960000 -18.3240000
  25.7450000  -8.5960000 -18.3790000  24.2640000  -6.9020000 -18.3930000
  23.3005508  -6.6043332 -18.4500927  25.3040000  -5.8870000 -18.4530000
  25.8962162  -6.0125604 -19.3594291  24.6770000  -4.4960000 -18.4690000
  24.1306905  -4.3908818 -19.4063342  23.9789161  -4.4389060 -17.6338238
  25.7010000  -3.3770000 -18.3510000  25.1616884  -2.4548557 -18.1344504
  26.3459392  -3.6265251 -17.5084504  26.5570000  -3.1850000 -19.6110000
  26.3110000  -3.8640000 -20.6400000  27.4770000  -2.3380000 -19.5710000
  26.2770000  -6.0210000 -17.2890000  27.4910000  -5.8730000 -17.4670000
  25.7690000  -6.3060000 -16.0890000  24.7738103  -6.3364406 -15.9193821
  26.6690000  -6.5290000 -14.9640000  27.3352726  -5.6742047 -14.8477887
  25.8850000  -6.7170000 -13.6660000  25.2704695  -7.6129982 -13.7534057
  26.8250000  -6.8620000 -12.4830000  27.4395782  -5.9661257 -12.3946676
  26.2437241  -6.9946437 -11.5705182  27.4676578  -7.7295004 -12.6331151
  25.0390000  -5.5830000 -13.4570000  24.5449742  -5.6982204 -12.6419766
  27.5530000  -7.7380000 -15.2220000  28.7660000  -7.6960000 -14.9850000
  26.9730000  -8.8240000 -15.7310000  25.9743071  -8.9175594 -15.8491464
  27.8170000  -9.9560000 -16.0770000  28.3735407 -10.2753554 -15.1958792
  26.9920000 -11.1250000 -16.5790000  26.5293423 -11.5969257 -15.7122052
  26.2201085 -10.8516502 -17.2984188  27.8260000 -12.1560000 -17.2260000
  28.6300000 -12.9780000 -16.4640000  28.6121921 -12.8679569 -15.3797153
  29.4430000 -13.9220000 -17.0460000  30.0640673 -14.5733867 -16.4311249
  29.4680000 -14.0390000 -18.4000000  30.1035525 -14.7844535 -18.8779874
  28.6740000 -13.1980000 -19.1780000  28.6893544 -13.2942356 -20.2636349
  27.8770000 -12.2540000 -18.5850000  27.2817448 -11.5790585 -19.2000001
  28.8580000  -9.5720000 -17.1250000  30.0350000  -9.9370000 -17.0040000
  28.4520000  -8.8370000 -18.1680000  27.4972434  -8.5274480 -18.2807685
  29.3960000  -8.5840000 -19.2560000  29.9789413  -9.4824374 -19.4587037
  28.6450000  -8.1930000 -20.5260000  27.7605064  -7.6000356 -20.2932694
  29.3336340  -7.5974882 -21.1253738  28.2360000  -9.4240000 -21.3030000
  29.1690000 -10.1380000 -22.0600000  30.1969132  -9.7779239 -22.1028855
  28.8050000 -11.2920000 -22.7530000  29.5400805 -11.8303919 -23.3512413
  27.5020000 -11.7460000 -22.6870000  27.1380000 -12.8820000 -23.3580000
  27.8650890 -13.2816498 -23.8409299  26.5630000 -11.0690000 -21.9400000
  25.5349046 -11.4277453 -21.8907844  26.9360000  -9.9130000 -21.2410000
  26.2017327  -9.3812885 -20.6358269  30.4650000  -7.5560000 -18.8790000
  31.5870000  -7.6290000 -19.3920000  30.1650000  -6.6120000 -17.9800000
  29.2169375  -6.4409622 -17.6766473  31.2310000  -5.7690000 -17.4350000
  31.7547727  -5.2705015 -18.2506351  30.6640000  -4.7080000 -16.5000000
  29.9858218  -5.2553658 -15.8453518  31.4973137  -4.3185360 -15.9151871
  29.9200000  -3.5560000 -17.1490000  29.1639046  -3.9288847 -17.8399252
  29.2490000  -2.7740000 -16.0420000  30.0045508  -2.4003764 -15.3508797
  28.7017157  -1.9341028 -16.4699642  28.5564352  -3.4231084 -15.5061711
  30.8960000  -2.7050000 -17.9330000  31.3702424  -3.3120982 -18.7041195
  30.3630385  -1.8767635 -18.3999879  31.6585045  -2.3124901 -17.2602282
  32.2380000  -6.6170000 -16.6870000  33.4520000  -6.4900000 -16.8800000
  31.7450000  -7.4990000 -15.8210000  30.7548829  -7.5450667 -15.6269758
  32.6350000  -8.3790000 -15.0790000  33.3052102  -7.7787391 -14.4636917
  31.8220000  -9.2970000 -14.1640000  31.1525478  -9.9110069 -14.7664362
  32.4977552  -9.9414092 -13.6016905  31.2356787  -8.6935122 -13.4710866
  33.5030000  -9.1880000 -16.0290000  34.7300000  -9.2150000 -15.8930000
  32.8840000  -9.8350000 -17.0190000  31.8763055  -9.8574791 -17.0833886
  33.6570000 -10.5900000 -18.0000000  34.1703910 -11.4199269 -17.5144588
  32.7250000 -11.1530000 -19.0740000  32.1180711 -11.9278289 -18.6056233
  32.0808519 -10.3388896 -19.4062613  33.4560000 -11.7360000 -20.2650000
  34.4563360 -12.0286782 -19.9459888  32.9156642 -12.6149031 -20.6166654
  33.5810000 -10.7580000 -21.4070000  32.6050000 -10.1110000 -21.7890000
  34.7820000 -10.6460000 -21.9670000  34.9197359 -10.0052021 -22.7354454
  35.5508759 -11.2022495 -21.6212868  34.7500000  -9.7260000 -18.6260000
  35.9150000 -10.1330000 -18.6990000  34.3980000  -8.5170000 -19.0650000
  33.4432095  -8.1918249 -19.0126961  35.3840000  -7.6640000 -19.7180000
  35.9082900  -8.2202216 -20.4950694  34.6820000  -6.4690000 -20.3620000
  33.8680685  -6.8554166 -20.9754305  34.2727516  -5.8457339 -19.5669182
  35.6050000  -5.6490000 -21.2150000  36.1010000  -6.1660000 -22.2390000
  35.8390000  -4.4800000 -20.8510000  36.4740000  -7.2130000 -18.7420000
  37.6560000  -7.1590000 -19.1060000  36.1120000  -6.8750000 -17.5040000
  35.1439576  -6.7996303 -17.2259484  37.1410000  -6.5470000 -16.5230000
  37.7328645  -5.7035518 -16.8785148  36.5070000  -6.1690000 -15.1820000
  35.8803550  -6.9854751 -14.8231356  37.2883400  -5.9628040 -14.4505008
  35.6310000  -4.9440000 -15.2340000  35.6310000  -4.1220000 -16.3380000
  36.2794818  -4.3616367 -17.1807013  34.8330000  -3.0200000 -16.3850000
  34.8452519  -2.3797905 -17.2670898  34.0200000  -2.7160000 -15.3330000
  33.3801385  -1.8345425 -15.3743496  34.0080000  -3.5230000 -14.2190000
  33.3605109  -3.2811897 -13.3761561  34.8070000  -4.6260000 -14.1700000
  34.7997813  -5.2654184 -13.2872815  38.1060000  -7.7140000 -16.3370000
  39.3280000  -7.5250000 -16.3180000  37.5730000  -8.9320000 -16.2150000
  36.5698981  -9.0483392 -16.1962596  38.4120000 -10.1200000 -16.0580000
  39.0150296 -10.0358339 -15.1539145  37.5330000 -11.3670000 -15.9450000
  36.8674901 -11.2910102 -15.0851039  36.9407625 -11.4736590 -16.8538337
  38.3120000 -12.6620000 -15.7790000  38.8360000 -13.0250000 -14.5430000
  38.6855957 -12.3640793 -13.6893828  39.5440000 -14.2130000 -14.3870000
  39.9500305 -14.4824102 -13.4119830  39.7320000 -15.0510000 -15.4690000
  40.2878398 -15.9814172 -15.3529575  39.2110000 -14.7050000 -16.7050000
  39.3566061 -15.3630694 -17.5616468  38.5010000 -13.5160000 -16.8530000
  38.0852817 -13.2467133 -17.8239598  39.3900000 -10.2840000 -17.2160000
  40.6050000 -10.3830000 -17.0060000  38.8720000 -10.3900000 -18.4460000
  37.8761227 -10.3492445 -18.6092992  39.7500000 -10.6440000 -19.5840000
  40.3008694 -11.5711976 -19.4260546  38.9320000 -10.7740000 -20.8730000
  38.2883683  -9.8976969 -20.9500091  39.6268009 -10.7887643 -21.7127224
  38.0790000 -12.0330000 -20.8990000  38.4310000 -12.9930000 -20.1820000
  37.0620000 -12.0810000 -21.6260000  40.8010000  -9.5480000 -19.7190000
  41.9680000  -9.8280000 -20.0250000  40.4150000  -8.2930000 -19.4780000
  39.4630026  -8.0536003 -19.2403279  41.3720000  -7.2150000 -19.6570000
  41.9776968  -7.3916755 -20.5458286  40.6270000  -5.8930000 -19.8290000
  39.8317716  -5.8519996 -19.0846680  41.3317614  -5.0805220 -19.6521076
  40.0280000  -5.7500000 -21.2180000  40.7632996  -6.0966477 -21.9441341
  39.1394404  -6.3789264 -21.2729138  39.6510000  -4.3160000 -21.5270000
  40.4966334  -3.6612038 -21.3166551  39.3763118  -4.2275560 -22.5781058
  38.5200000  -3.8940000 -20.7120000  37.6596708  -4.4051354 -20.8486515
  38.5440000  -2.9210000 -19.8010000  39.6490000  -2.2060000 -19.5770000
  40.4880819  -2.4002388 -20.1045537  39.6408058  -1.4741302 -18.8810122
  37.4350000  -2.6480000 -19.1280000  36.5935389  -3.1754599 -19.3119273
  37.4366340  -1.9138015 -18.4344233  42.3680000  -7.1630000 -18.5050000
  43.5570000  -6.8950000 -18.7270000  41.9150000  -7.4660000 -17.2830000
  40.9310007  -7.6171857 -17.1127425  42.8320000  -7.5240000 -16.1460000
  43.3637391  -6.5765674 -16.0581127  42.0730000  -7.7830000 -14.8390000
  41.3997424  -6.9421341 -14.6723626  41.4893643  -8.6928973 -14.9788437
  42.9910000  -7.9480000 -13.6280000  43.6780000  -6.8520000 -13.1030000
  43.5447900  -5.8767437 -13.5712198  44.5220000  -6.9870000 -12.0010000
  45.0604664  -6.1212321 -11.6155111  44.6780000  -8.2330000 -11.3930000
  45.5140000  -8.3400000 -10.2970000  45.9221130  -7.5058326 -10.0536728
  43.9960000  -9.3430000 -11.8900000  44.1054283 -10.3190619 -11.4173171
  43.1630000  -9.1950000 -13.0090000  42.6347854 -10.0585261 -13.4132427
  43.8920000  -8.5940000 -16.3560000  45.0930000  -8.3360000 -16.2160000
  43.4570000  -9.8160000 -16.6700000  42.4698491 -10.0287538 -16.6891922
  44.4000000 -10.8930000 -16.9310000  44.9670434 -11.1237814 -16.0291680
  43.6440000 -12.1430000 -17.3640000  43.0724500 -11.8894852 -18.2568383
  44.3826041 -12.9057701 -17.6104667  42.7150000 -12.6690000 -16.3080000
  42.0482543 -11.8647788 -15.9969064  42.1278701 -13.4831148 -16.7329678
  43.6250000 -13.2810000 -14.8640000  44.0010000 -14.9590000 -15.3680000
  44.5990965 -14.9398987 -16.2790514  44.5599446 -15.4597519 -14.5774754
  43.0729936 -15.4994907 -15.5544812  45.4310000 -10.5060000 -17.9830000
  46.5820000 -10.9440000 -17.9080000  45.0430000  -9.6900000 -18.9700000
  44.0828533  -9.3928044 -19.0694609  46.0050000  -9.2660000 -19.9780000
  46.4597113 -10.1515003 -20.4221014  45.2920000  -8.4820000 -21.0750000
  44.8392453  -7.5874593 -20.6473200  46.0108051  -8.1935948 -21.8419693
  44.5156934  -9.1038783 -21.5207742  47.1310000  -8.4380000 -19.3660000
  48.2310000  -8.3750000 -19.9280000  46.8800000  -7.7910000 -18.2330000
  45.9445075  -7.7949803 -17.8522936  47.9040000  -7.0320000 -17.5360000
  48.5996011  -6.6038554 -18.2577552  47.2650000  -5.8950000 -16.7400000
  48.0429897  -5.1967577 -16.4313093  46.2430000  -5.1690000 -17.5840000
  45.4643884  -5.8665428 -17.8927031  45.7974206  -4.3622560 -17.0020015
  46.7290210  -4.7538272 -18.4669019  46.6140000  -6.4380000 -15.5900000
  46.2103932  -5.7278470 -15.0856345  48.7480000  -7.8770000 -16.5880000
  49.7180000  -7.3560000 -16.0380000  48.4160000  -9.1480000 -16.3770000
  47.6381162  -9.5439491 -16.8851539  49.0930000  -9.9820000 -15.3870000
  49.8687271  -9.4015517 -14.8875739  48.1030000 -10.4860000 -14.3320000
  47.3874450 -11.1288451 -14.8446699  48.6721447 -11.0767530 -13.6142360
  47.3530000  -9.3740000 -13.5960000  46.9369760  -8.6860555 -14.3320416
  46.5428395  -9.8297311 -13.0267450  48.2350000  -8.5880000 -12.6410000
  48.2510000  -7.3530000 -12.6810000  48.9690000  -9.2990000 -11.7710000
  49.5714589  -8.8222603 -11.1153599  48.9155800 -10.3075752 -11.7758689
  49.8120000 -11.1670000 -16.0350000  49.6440000 -11.4650000 -17.2270000
  50.6360000 -11.8380000 -15.2140000  50.7312645 -11.5078143 -14.2642624
  51.4040000 -13.0110000 -15.6190000  50.9467855 -13.4350113 -16.5130182
  52.8640000 -12.6860000 -15.9250000  53.3593107 -12.5415484 -14.9648436
  53.2815252 -13.5625625 -16.4203896  53.0780000 -11.4820000 -16.7810000
  52.9596053 -11.7960599 -17.8180390  52.3328514 -10.7224089 -16.5446231
  54.4670000 -10.9060000 -16.5830000  55.4460000 -11.6970000 -16.6040000
  54.5720000  -9.6700000 -16.3770000  51.3850000 -14.0540000 -14.5130000
  51.2970000 -13.7240000 -13.3250000  51.4630000 -15.3220000 -14.9330000
  51.3003339 -15.5072947 -15.9124411  51.6870000 -16.4600000 -14.0390000
  51.5660022 -17.3888087 -14.5964703  53.0980000 -16.4270000 -13.4430000
  53.1681087 -15.5470401 -12.8035826  53.2672889 -17.3234023 -12.8464229
  54.1660000 -16.3420000 -14.4950000  54.3170000 -17.2420000 -15.3060000
  54.9370000 -15.2630000 -14.4730000  55.6707987 -15.1563507 -15.1587588
  54.7867617 -14.5529652 -13.7705900  50.6470000 -16.5400000 -12.9210000
  50.9580000 -16.9080000 -11.7790000  49.3920000 -16.2240000 -13.2320000
  49.1584984 -15.8003386 -14.1186157  48.3280000 -16.4280000 -12.2650000
  48.6052314 -16.1036976 -11.2619696  47.0670000 -15.6640000 -12.6970000
  46.8747785 -15.8641131 -13.7510896  45.8700000 -16.1040000 -11.8720000
  46.0613026 -15.9037639 -10.8177658  44.9855667 -15.5527293 -12.1913413
  45.7029074 -17.1717153 -12.0140058  47.3080000 -14.1640000 -12.5740000
  48.1418814 -13.8757696 -13.2140524  46.4117137 -13.6250871 -12.8811536
  47.5429991 -13.9169281 -11.5387069  48.0570000 -17.9180000 -12.1250000
  48.1060000 -18.6760000 -13.1020000  47.7840000 -18.3480000 -10.9040000
  47.8025396 -17.7104260 -10.1208940  47.5210000 -19.7500000 -10.6430000
  47.7899808 -20.3681351 -11.4995381  48.2920000 -20.2500000  -9.4170000
  48.0605689 -21.3007809  -9.2426484  49.7790000 -20.0950000  -9.6650000
  50.0112867 -19.0443469  -9.8389884  50.3318618 -20.4495809  -8.7951053
  50.0648861 -20.6794310 -10.5395348  47.8520000 -19.4780000  -8.1710000
  46.7846143 -19.6275019  -8.0083994  48.4052253 -19.8400520  -7.3044207
  48.0523280 -18.4158150  -8.3114725  46.0230000 -19.9500000 -10.4690000
  45.2810000 -19.0350000 -10.1120000  45.5890000 -21.1840000 -10.7320000
  46.2534025 -21.8901179 -11.0149595  44.1730000 -21.5400000 -10.6970000
  43.6252269 -21.0150260 -11.4795894  44.0370000 -23.0550000 -10.9330000
  44.5232772 -23.2496896 -11.8888921  44.6050862 -23.5304897 -10.1334454
  42.6170000 -23.6250000 -10.9580000  41.9364496 -22.8682109 -10.5678433
  42.3554779 -23.8496426 -11.9920425  42.5010000 -24.9080000 -10.1080000
  43.2964739 -24.8880318  -9.3630694  41.5335233 -24.8897466  -9.6062480
  42.6170000 -26.1780000 -10.9400000  41.8679765 -26.1419091 -11.7310511
  43.6120685 -26.2101359 -11.3837399  42.4030000 -27.4030000 -10.1060000
  41.4808408 -27.3736261  -9.6950751  42.4865917 -28.2247785 -10.6871992
  43.0972241 -27.4368561  -9.3731933  43.5130000 -21.1210000  -9.3840000
  42.3520000 -20.6960000  -9.3750000  44.2400000 -21.2180000  -8.2650000
  45.2041852 -21.5171181  -8.2962193  43.6370000 -20.9580000  -6.9590000
  42.7119820 -21.5239287  -6.8487021  44.6040000 -21.3770000  -5.8440000
  45.0204717 -22.3542364  -6.0882552  45.7390000 -20.3610000  -5.6990000
  45.3233070 -19.3835511  -5.4542706  46.4121762 -20.6786659  -4.9027455
  46.2911562 -20.2960288  -6.6365515  43.8940000 -21.4660000  -4.6010000
  44.5001849 -21.7282221  -3.9043080  43.2290000 -19.4960000  -6.7670000
  42.4670000 -19.1940000  -5.8400000  43.7260000 -18.5870000  -7.6030000
  44.3930360 -18.8703688  -8.3064660  43.3860000 -17.1740000  -7.5030000
  43.0872734 -16.9264648  -6.4843794  44.6120000 -16.3300000  -7.8730000
  45.4308672 -16.8574979  -7.3838153  44.7438662 -16.3780098  -8.9539285
  44.6080000 -14.8720000  -7.4260000  43.7715751 -14.3470300  -7.8874117
  44.4660000 -14.8210000  -5.9180000  45.3023675 -15.3454032  -5.4558426
  44.4620369 -13.7822134  -5.5878371  43.5313205 -15.2986521  -5.6241923
  45.8700000 -14.1310000  -7.8940000  45.9239156 -14.1557757  -8.9823835
  45.8302103 -13.0954317  -7.5561888  46.7524319 -14.6153673  -7.4759076
  42.2000000 -16.7830000  -8.3810000  41.6840000 -15.6730000  -8.2350000
  41.7490000 -17.6670000  -9.2740000  42.1243010 -18.6035969  -9.3191078
  40.7350000 -17.2810000 -10.2480000  41.0885336 -16.4301720 -10.8304130
  40.4400000 -18.4340000 -11.2000000  40.3803287 -19.3076647 -10.5509633
  39.4738200 -18.2697956 -11.6771092  41.5000000 -18.6670000 -12.2680000
  42.4638999 -18.8010278 -11.7770475  41.1830000 -19.8920000 -13.1000000
  40.2193892 -19.7585111 -13.5916642  41.9585044 -20.0308789 -13.8532638
  41.1426145 -20.7695806 -12.4547700  41.6230000 -17.4400000 -13.1330000
  41.9106237 -16.5879473 -12.5170631  42.3820184 -17.6080449 -13.8970374
  40.6654916 -17.2348425 -13.6117349  39.4530000 -16.8340000  -9.5740000
  38.8300000 -15.8600000  -9.9950000  39.0160000 -17.5560000  -8.5500000
  39.5169628 -18.3532844  -8.1846601  37.7200000 -17.2360000  -7.9780000
  36.9597460 -17.2448533  -8.7590472  37.3360000 -18.2630000  -6.9100000
  37.6584967 -19.2444872  -7.2575313  37.8693173 -18.0092200  -5.9938841
  35.8520000 -18.2890000  -6.6370000  35.5206965 -17.2845468  -6.3735372
  35.3468030 -18.6104481  -7.5477959  35.4780000 -19.2230000  -5.5270000
  36.2970000 -19.5360000  -4.6670000  34.2310000 -19.6690000  -5.5250000
  33.9252818 -20.3014519  -4.7992987  33.5914676 -19.3746234  -6.2491837
  37.7170000 -15.8270000  -7.4100000  36.7130000 -15.1100000  -7.5290000
  38.8430000 -15.4030000  -6.8270000  39.6418241 -16.0152260  -6.7423912
  38.9300000 -14.0680000  -6.2450000  38.0634171 -13.8809028  -5.6108645
  40.1900000 -13.9470000  -5.3960000  40.1721528 -14.7922782  -4.7080426
  41.0649994 -14.0229999  -6.0415231  40.2560000 -12.6490000  -4.6030000
  40.1736009 -11.8025280  -5.2847597  39.1230000 -12.6060000  -3.6100000
  39.2049916 -13.4519651  -2.9275638  39.1712756 -11.6763817  -3.0429197
  38.1721743 -12.6585121  -4.1403521  41.5800000 -12.5270000  -3.8960000
  42.3861813 -12.5338109  -4.6295699  41.6080629 -11.5930373  -3.3347270
  41.7054620 -13.3657201  -3.2112323  38.9130000 -12.9940000  -7.3250000
  38.2580000 -11.9560000  -7.1700000  39.6290000 -13.2200000  -8.4260000
  40.2217337 -14.0325993  -8.5179159  39.6340000 -12.2360000  -9.5010000
  39.8031814 -11.2178077  -9.1506269  40.6970000 -12.6000000 -10.5480000
  40.5344348 -13.6248262 -10.8817727  40.6010000 -11.6400000 -11.7620000
  40.7639288 -10.6149587 -11.4290659  41.3592207 -11.9072553 -12.4980549
  39.6122744 -11.7220237 -12.2134344  42.0860000 -12.6080000  -9.8980000
  42.3749916 -11.5698890  -9.7339568  41.9933882 -13.1149442  -8.9375157
  43.1430000 -13.3000000 -10.7340000  43.2365151 -12.7932991 -11.6945254
  44.0991721 -13.2669540 -10.2117529  42.8549103 -14.3383544 -10.8980862
  38.2460000 -12.1170000 -10.1280000  37.7750000 -11.0100000 -10.4370000
  37.5670000 -13.2460000 -10.3130000  37.9744898 -14.1348361 -10.0599747
  36.2360000 -13.2380000 -10.8770000  36.2962700 -12.7639357 -11.8566580
  35.9218609 -14.2751143 -10.9945154  35.2100000 -12.5040000 -10.0360000
  34.5740000 -11.5560000 -10.5150000  35.0250000 -12.9320000  -8.7820000
  35.5372241 -13.7186779  -8.4093558  33.9800000 -12.3330000  -7.9570000
  33.0296630 -12.2807976  -8.4882566  33.7950000 -13.1370000  -6.6470000
  33.8691160 -14.1991751  -6.8802194  34.8590000 -12.7670000  -5.6050000
  34.7851988 -11.7049939  -5.3709122  34.6986808 -13.3503722  -4.6983163
  35.8499751 -12.9824402  -6.0045659  32.3940000 -12.9290000  -6.0680000
  32.3515554 -13.4619445  -5.1181214  32.2700796 -11.8607142  -5.8904933
  31.2980000 -13.4160000  -6.9620000  31.4209930 -14.4843780  -7.1395980
  30.3337272 -13.2358426  -6.4867942  31.3395189 -12.8831488  -7.9119714
  34.2730000 -10.8580000  -7.6960000  33.3480000 -10.0430000  -7.6140000
  35.5490000 -10.4760000  -7.5900000  36.3128072 -11.1368298  -7.5886150
  35.8580000  -9.0580000  -7.4010000  35.2547913  -8.6521272  -6.5889004
  37.3320000  -8.8790000  -7.0500000  37.9460045  -9.2367764  -7.8764948
  37.5362717  -7.8223541  -6.8771635  37.6390000  -9.6160000  -5.8810000
  38.5670309  -9.5002846  -5.6642778  35.4970000  -8.2600000  -8.6440000
  34.9700000  -7.1460000  -8.5450000  35.7610000  -8.8250000  -9.8260000
  36.3022598  -9.6757425  -9.8840893  35.3200000  -8.1990000 -11.0690000
  35.7572028  -7.2049321 -11.1627117  35.7640000  -9.0430000 -12.2650000
  35.2278457  -9.9914605 -12.2324342  35.5005992  -8.5084827 -13.1776946
  37.1550000  -9.2880000 -12.2480000  37.3957997  -9.8185934 -13.0109456
  33.8070000  -8.0170000 -11.0790000  33.2940000  -6.9740000 -11.5020000
  33.0730000  -9.0400000 -10.6370000  33.4868491  -9.9325373 -10.4085148
  31.6290000  -8.9040000 -10.5370000  31.2231238  -8.5434025 -11.4821630
  30.9920000 -10.2570000 -10.2160000  31.4066922 -10.9474721 -10.9504235
  31.2931348 -10.5675608  -9.2155152  29.4680000 -10.2650000 -10.3140000
  29.0712253  -9.4988972  -9.6478489  29.0100000  -9.9860000 -11.7360000
  29.4060275 -10.7520021 -12.4027098  27.9208100  -9.9977136 -11.7763566
  29.3742116  -9.0078960 -12.0502656  28.9310000 -11.5870000  -9.8360000
  29.2251047 -11.7454929  -8.7984636  27.8434255 -11.5856722  -9.9086713
  29.3349516 -12.3887619 -10.4541423  31.2480000  -7.8700000  -9.4870000
  30.2240000  -7.1920000  -9.6360000  32.0650000  -7.7240000  -8.4350000
  32.8666123  -8.3282961  -8.3239000  31.7890000  -6.7380000  -7.3890000
  30.7737928  -6.8647592  -7.0129871  32.7720000  -6.9250000  -6.2220000
  32.7430285  -7.9477302  -5.8461239  33.7773978  -6.6968587  -6.5758740
  32.5140000  -6.0180000  -5.0330000  31.2800000  -6.0010000  -4.4010000
  30.4828436  -6.6403740  -4.7802657  31.0510000  -5.1830000  -3.2970000
  30.0739995  -5.1818066  -2.8137100  32.0520000  -4.3810000  -2.8190000
  31.8730084  -3.7382797  -1.9570415  33.2870000  -4.3870000  -3.4290000
  34.0838398  -3.7480070  -3.0484287  33.5180000  -5.2060000  -4.5280000
  34.4984321  -5.2153949  -5.0041979  31.8670000  -5.3200000  -7.9430000
  30.9720000  -4.4970000  -7.7050000  32.9490000  -5.0150000  -8.6720000
  33.7126709  -5.6712444  -8.7510532  33.0810000  -3.7140000  -9.3300000
  33.0001642  -2.8811745  -8.6314540  34.4230000  -3.6260000 -10.0800000
  34.4931651  -4.4585084 -10.7800764  34.5220000  -2.3170000 -10.8400000
  34.4523753  -1.4839714 -10.1404885  35.4766691  -2.2718568 -11.3640894
  33.7081965  -2.2532014 -11.5623245  35.5930000  -3.8130000  -9.1180000
  35.6885974  -2.8973677  -8.5344082  35.3444281  -4.6416034  -8.4548801
  36.8830000  -4.0990000  -9.8080000  37.1324835  -3.2705700 -10.4709944
  37.6728324  -4.2210552  -9.0668074  36.7883133  -5.0148050 -10.3914685
  31.9220000  -3.4960000 -10.2840000  31.2670000  -2.4460000 -10.2860000
  31.6700000  -4.4870000 -11.1300000  32.2387667  -5.3216188 -11.1339114
  30.6120000  -4.3710000 -12.1160000  30.8108821  -3.5219400 -12.7699436
  30.5550000  -5.6420000 -12.9680000  30.3474865  -6.4998265 -12.3283346
  29.7652447  -5.5454971 -13.7130329  31.5116351  -5.7867343 -13.4699966
  29.2860000  -4.1070000 -11.4380000  28.5260000  -3.2410000 -11.8630000
  28.9890000  -4.8380000 -10.3720000  29.6005006  -5.5573935 -10.0133366
  27.6890000  -4.6610000  -9.7430000  26.9215269  -4.7208590 -10.5146872
  27.4380000  -5.7660000  -8.7180000  28.1932785  -5.7133103  -7.9338583
  26.4489870  -5.6367040  -8.2784136  27.4924245  -6.7373819  -9.2094819
  27.5760000  -3.2770000  -9.1120000  26.5350000  -2.6160000  -9.2340000
  28.6490000  -2.8040000  -8.4630000  29.4577643  -3.3817113  -8.2834189
  28.6370000  -1.4430000  -7.9290000  27.8064306  -1.3301469  -7.2322089
  29.9480000  -1.1360000  -7.1850000  30.7588537  -1.5563103  -7.7799410
  30.0486260  -0.0512356  -7.1494957  30.0120000  -1.6960000  -5.7760000
  29.0623617  -1.4731697  -5.2895490  30.1339428  -2.7761924  -5.8561020
  31.1580000  -1.1140000  -4.9470000  31.1668047  -0.0363345  -5.1102745
  30.9424350  -1.3203724  -3.8986481  32.5100000  -1.6890000  -5.3060000
  32.5019912  -2.7684980  -5.1552671  32.7371633  -1.4700237  -6.3493338
  33.5390000  -1.0790000  -4.4400000  33.3289270  -1.2821554  -3.4732027
  34.4449061  -1.4589201  -4.6747228  33.5468777  -0.0787584  -4.5798347
  28.3960000  -0.4280000  -9.0400000  27.6990000   0.5710000  -8.8380000
  28.9520000  -0.6770000 -10.2250000  29.5238702  -1.4967910 -10.3699361
  28.7950000   0.2620000 -11.3320000  28.9390404   1.2837036 -10.9806122
  29.8320000  -0.0330000 -12.4120000  29.7429487  -1.0924639 -12.6522192
  29.5716918   0.5608170 -13.2881969  31.2620000   0.2740000 -11.9990000
  31.4912207  -0.2416503 -11.0664425  32.1960000  -0.1910000 -13.0670000
  31.9676799   0.3245854 -13.9998132  33.2225684   0.0280242 -12.7732543
  32.0805859  -1.2655657 -13.2087338  31.4270000   1.7550000 -11.7890000
  30.7468948   2.0894061 -11.0055915  32.4541636   1.9683311 -11.4931520
  31.1996216   2.2814870 -12.7159356  27.3910000   0.2150000 -11.9300000
  26.8280000   1.2550000 -12.2800000  26.8030000  -0.9680000 -12.0600000
  27.1797283  -1.7906602 -11.6112180  25.6370000  -1.1230000 -12.9200000
  25.5132136  -0.2428586 -13.5509733  25.8240000  -2.3480000 -13.8200000
  26.6305797  -2.1048498 -14.5116693  26.1370652  -3.1654991 -13.1705499
  24.5830000  -2.7720000 -14.6120000  24.8243040  -3.7088941 -15.1140982
  23.7803366  -2.9412851 -13.8942443  24.1330000  -1.7440000 -15.6440000
  24.9560000  -0.8770000 -16.0390000  22.9460000  -1.8160000 -16.0510000
  24.3080000  -1.2370000 -12.1760000  23.2790000  -0.8140000 -12.7070000
  24.2820000  -1.7870000 -10.9680000  25.1416084  -2.0804743 -10.5263604
  23.0270000  -2.0150000 -10.2590000  22.2159544  -2.1603757 -10.9725615
  23.1390000  -3.2640000  -9.3860000  23.8161456  -3.0361879  -8.5627900
  22.1476883  -3.4843940  -8.9899854  23.6520000  -4.4550000 -10.1400000
  24.5320743  -4.1422134 -10.7019026  23.9350144  -5.2235644  -9.4207567
  22.6230000  -5.0100000 -11.0880000  21.4290000  -4.7350000 -10.8560000
  22.9950000  -5.7200000 -12.0530000  22.6470000  -0.8230000  -9.3850000
  23.5070000  -0.1770000  -8.7820000  21.3450000  -0.5480000  -9.3040000
  20.6731264  -0.9874852  -9.9168116  20.8680000   0.4610000  -8.3650000
  21.4068832   1.4005500  -8.4872698  19.3640000   0.7060000  -8.5520000
  18.8096017  -0.1697160  -8.2145620  18.9400000   1.9150000  -7.7420000
  19.4936744   2.7912652  -8.0792010  17.8720464   2.0867335  -7.8764746
  19.1489450   1.7376400  -6.6870192  19.0400000   0.8870000 -10.0300000
  19.2464692  -0.0585738 -10.5313595  17.9771180   1.1152203 -10.1093524
  19.8250000   1.9660000 -10.6700000  20.8880399   1.7382373 -10.5914491
  19.5472795   2.0435922 -11.7211660  19.6186902   2.9120317 -10.1694401
  21.1810000   0.0410000  -6.9340000  21.8090000   0.7860000  -6.1750000
  20.7520000  -1.1590000  -6.5420000  20.2003833  -1.7110251  -7.1831605
  21.0010000  -1.6930000  -5.2060000  21.5657662  -0.9650846  -4.6235247
  19.6960000  -1.9900000  -4.4800000  19.1673652  -2.7416440  -5.0662387
  19.9170992  -2.3908795  -3.4908030  18.8350000  -0.7650000  -4.3430000
  17.6430000  -0.6330000  -5.0600000  17.3352019  -1.4405695  -5.7242223
  16.8480000   0.5130000  -4.9360000  15.9163165   0.6053786  -5.4941522
  17.2570000   1.5390000  -4.0910000  16.4900000   2.6880000  -3.9450000
  15.6898192   2.6747328  -4.4752210  18.4480000   1.4200000  -3.3800000
  18.7701517   2.2222775  -2.7161705  19.2250000   0.2790000  -3.5170000
  20.1632173   0.1895516  -2.9694168  21.8500000  -2.9470000  -5.3540000
  21.3310000  -4.0710000  -5.2980000  23.1610000  -2.7950000  -5.5400000
  23.9310000  -1.5470000  -5.6010000  23.6082445  -0.8753432  -4.8055087
  23.7772594  -1.0657494  -6.5668472  25.3330000  -2.0190000  -5.4180000
  25.5686748  -2.0837361  -4.3557544  26.0243946  -1.3289504  -5.9016387
  25.3770000  -3.3450000  -6.0610000  26.1704314  -3.9270534  -5.5921936
  25.5285191  -3.3283128  -7.1402882  24.0100000  -3.9660000  -5.7330000
  23.6030020  -4.5591646  -6.5519057  24.0720000  -4.8120000  -4.4810000
  23.8810000  -4.3060000  -3.3570000  24.3570000  -6.1120000  -4.6060000
  24.6360000  -6.8760000  -5.8380000  25.6474796  -6.6598534  -6.1819330
  23.9218575  -6.5958936  -6.6123642  24.4720000  -8.2830000  -5.4000000
  25.0885177  -8.9365028  -6.0172026  23.4267574  -8.5786664  -5.4902814
  24.9150000  -8.3070000  -3.9610000  26.0015724  -8.3928563  -3.9703811
  24.4938430  -9.0985749  -3.3412133  24.5060000  -6.9390000  -3.4100000
  23.5627079  -6.9667444  -2.8645383  25.5850000  -6.3470000  -2.5230000
  26.4870000  -5.6550000  -2.9960000  25.4710000  -6.5980000  -1.2220000
  24.6702542  -7.0876581  -0.8489846  26.4850000  -6.1250000  -0.2920000
  26.7930735  -5.1152672  -0.5633476  25.9350000  -6.1010000   1.1290000
  25.6542062  -7.1244503   1.3776032  26.7492516  -5.7801657   1.7787383
  24.7640000  -5.2050000   1.3230000  24.0192180  -5.4261567   0.5584803
  24.3375087  -5.3892030   2.3090408  25.1750000  -3.7710000   1.2180000
  26.0976508  -3.6112482   1.7759372  25.3338318  -3.5097905   0.1717488
  24.0790000  -2.8990000   1.7950000  23.1664776  -3.0623976   1.2216724
  23.9128243  -3.1900144   2.8322056  24.4460000  -1.4720000   1.7380000
  24.5996060  -1.2020302   0.7769479  23.6984556  -0.9162853   2.1284594
  25.2913047  -1.3203027   2.2695515  27.7330000  -7.0090000  -0.3580000
  27.6770000  -8.1830000  -0.7400000  28.8740000  -6.4150000   0.0140000
  28.8797617  -5.4490693   0.3090321  30.1470000  -7.1230000  -0.0600000
  30.4088368  -7.3071887  -1.1019286  31.2570000  -6.2890000   0.5830000
  31.3690403  -5.4356928  -0.0858894  30.9084448  -5.9437094   1.5563364
  32.6020000  -6.9880000   0.7440000  32.4462574  -7.9772710   1.1743346
  33.2690000  -7.1250000  -0.6030000  33.4255024  -6.1360459  -1.0337850
  34.2301484  -7.6251090  -0.4838973  32.6337250  -7.7129238  -1.2654739
  33.4880000  -6.2400000   1.7070000  33.0030470  -6.1873237   2.6817539
  34.4410717  -6.7600314   1.8035556  33.6615127  -5.2309509   1.3330852
  30.0670000  -8.4920000   0.5980000  30.6010000  -9.4700000   0.0580000
  29.4110000  -8.5930000   1.7670000  28.9940126  -7.7919316   2.2192281
  29.3700000  -9.8810000   2.4610000  30.3808672 -10.2832981   2.5273549
  28.8010000  -9.7470000   3.8810000  28.8730662 -10.6910385   4.4210898
  29.3631678  -8.9802243   4.4140314  27.3670000  -9.3360000   3.9290000
  26.9720000  -8.0200000   4.0720000  25.6530000  -7.9480000   4.0840000
  25.1445059  -6.9895558   4.1884865  25.1750000  -9.1740000   3.9540000
  24.1982967  -9.4283197   3.9156334  26.2270000 -10.0620000   3.8780000
  26.0326711 -11.1312917   3.7946168  28.5860000 -10.9320000   1.6890000
  28.7380000 -12.1270000   1.9630000  27.7740000 -10.5350000   0.7160000
  27.5204828  -9.5736432   0.5381758  27.1480000 -11.5720000  -0.0860000
  26.9440425 -12.4451534   0.5337609  25.8380000 -11.0750000  -0.6700000
  25.8561591  -9.9851542  -0.6723482  25.7603755 -11.4387799  -1.6945676
  24.6550000 -11.5540000   0.1220000  24.3539445 -12.5430066  -0.2234452
  24.9230489 -11.6043422   1.1773282  23.4960000 -10.6200000  -0.0330000
  23.6630000  -9.4720000  -0.4900000  22.2980000 -11.0920000   0.3370000
  21.4800105 -10.5053441   0.2543592  22.2183030 -12.0323355   0.6968875
  28.0720000 -12.0690000  -1.1830000  28.0530000 -13.2620000  -1.5110000
  28.9000000 -11.1930000  -1.7480000  28.8172276 -10.1956811  -1.6116072
  29.9030000 -11.6800000  -2.6800000  29.4310769 -12.2526891  -3.4783827
  30.6360000 -10.5020000  -3.2960000  30.8983760  -9.7815348  -2.5212820
  31.5407935 -10.8304781  -3.8074205  29.8080000  -9.7560000  -4.3180000
  28.9220000  -8.7610000  -3.9330000  28.8243890  -8.5106451  -2.8766410
  28.1610000  -8.0840000  -4.8820000  27.4687438  -7.3028794  -4.5677825
  28.2840000  -8.4050000  -6.2360000  27.6925391  -7.8746288  -6.9823112
  29.1560000  -9.3950000  -6.6260000  29.2568047  -9.6553059  -7.6796505
  29.9100000 -10.0640000  -5.6700000  30.6011029 -10.8503996  -5.9734013
  30.8550000 -12.6630000  -1.9990000  31.1610000 -13.7260000  -2.5570000
  31.3140000 -12.3440000  -0.7790000  31.1504423 -11.4293093  -0.3831601
  32.1170000 -13.2980000  -0.0130000  33.0043757 -13.5621908  -0.5882102
  32.5600000 -12.6660000   1.3050000  31.6824017 -12.4042991   1.8961294
  33.1733560 -13.3753472   1.8606268  33.1408399 -11.7666822   1.1001789
  31.3410000 -14.5880000   0.2470000  31.8630000 -15.6930000   0.0480000
  30.0840000 -14.4620000   0.6810000  29.6807769 -13.5466764   0.8213324
  29.2830000 -15.6310000   1.0270000  29.7513169 -16.1802823   1.8437419
  27.8870000 -15.1850000   1.4740000  28.0032660 -14.7192496   2.4526000
  27.5317000 -14.4429975   0.7589516  26.8850000 -16.3130000   1.5690000
  26.0530000 -16.6190000   0.5020000  26.1303373 -16.0319162  -0.4131235
  25.1390000 -17.6470000   0.5860000  24.4913675 -17.8762681  -0.2602329
  25.0460000 -18.3910000   1.7510000  24.1390000 -19.4270000   1.8420000
  23.6232755 -19.5454803   1.0410067  25.8590000 -18.0980000   2.8250000
  25.7875042 -18.6799380   3.7438781  26.7660000 -17.0630000   2.7330000
  27.4050107 -16.8212154   3.5822971  29.1890000 -16.6110000  -0.1380000
  29.2520000 -17.8270000   0.0590000  29.0320000 -16.1050000  -1.3600000
  29.0023230 -15.1070025  -1.5123801  28.7820000 -16.9830000  -2.4920000
  28.0717174 -17.7824194  -2.2809870  28.2330000 -16.1300000  -3.6520000
  27.6069965 -15.3383575  -3.2402706  29.3600000 -15.5170000  -4.4490000
  29.9862162 -16.3080944  -4.8614607  28.9476391 -14.9195764  -5.2621076
  29.9606550 -14.8803002  -3.7994397  27.3420000 -16.9530000  -4.5230000
  26.5069162 -17.3323606  -3.9340835  26.9611707 -16.3379714  -5.3383579
  27.9066089 -17.7902691  -4.9332416  30.0060000 -17.7950000  -2.8930000
  29.8820000 -18.7400000  -3.6880000  31.1800000 -17.4760000  -2.3440000
  31.2429821 -16.6575021  -1.7556177  32.3960000 -18.2340000  -2.6050000
  32.3553651 -18.6643762  -3.6056120  33.6390000 -17.3310000  -2.5080000
  34.5179950 -17.9195434  -2.7708396  33.5290000 -16.1470000  -3.4400000
  32.6504336 -15.5576819  -3.1774646  34.4215607 -15.5280303  -3.3488354
  33.4355299 -16.4998622  -4.4670600  33.7860000 -16.8450000  -1.1670000
  34.5624640 -16.2829880  -1.1136466  32.5800000 -19.4210000  -1.6670000
  33.6400000 -20.0500000  -1.7170000  31.5970000 -19.7280000  -0.8060000
  30.8182971 -19.0903858  -0.7213284  31.6410000 -20.9040000   0.0900000
  30.8074545 -20.8613854   0.7910599  31.5390000 -22.2160000  -0.7190000
  30.8570055 -22.0379884  -1.5504413  32.5354521 -22.4286737  -1.1062378
  31.0360000 -23.4310000   0.1130000  30.4930000 -23.2570000   1.2350000
  31.1890000 -24.5740000  -0.3860000  32.9000000 -20.8960000   0.9710000
  33.4990000 -21.9410000   1.2440000  33.3240000 -19.7030000   1.4050000
  32.7980124 -18.8806572   1.1457920  34.5070000 -19.5320000   2.2330000
  34.2938865 -18.6862596   2.8867622  34.5874003 -20.4406052   2.8297175
  35.8330000 -19.2870000   1.5210000  36.8340000 -19.0340000   2.2050000
  35.8900000 -19.3690000   0.1840000  35.0654079 -19.5807094  -0.3594394
  37.1620000 -19.2080000  -0.5200000  37.9028453 -19.7976199   0.0199961
  37.0520000 -19.7480000  -1.9430000  36.3203733 -19.1618197  -2.4990711
  38.0222730 -19.6780904  -2.4347146  36.7346690 -20.7903561  -1.9130993
  37.6540000 -17.7630000  -0.5810000  38.8130000 -17.5370000  -0.9500000
  36.8110000 -16.7820000  -0.2660000  35.8912381 -17.0058398   0.0861834
  37.1650000 -15.3760000  -0.4320000  38.2475665 -15.2668991  -0.3668391
  36.7000000 -14.8370000  -1.7860000  35.6168866 -14.9135745  -1.8813990
  37.0028411 -13.7976638  -1.9131521  37.3870000 -15.7300000  -3.1830000
  36.7828792 -15.0063794  -4.1212481  36.5250000 -14.5670000   0.6760000
  35.3080000 -14.6320000   0.8620000  37.3370000 -13.7950000   1.3880000
  38.3356712 -13.8385222   1.2435667  36.8280000 -12.9060000   2.4190000
  35.9044826 -13.3117637   2.8320021  37.8470000 -12.7560000   3.5530000
  37.4247061 -12.1114820   4.3239498  38.0526461 -13.7397032   3.9750636
  39.0520000 -12.1880000   3.0710000  39.6770567 -12.1019776   3.7945358
  36.4950000 -11.5350000   1.8320000  37.0260000 -11.1360000   0.7870000
  35.6020000 -10.8160000   2.5140000  35.0939237 -11.2081446   3.2938593
  35.3390000  -9.4390000   2.1450000  34.7782595  -9.4175057   1.2105444
  34.7534777  -8.9613222   2.9305488  36.6320000  -8.6750000   1.9610000
  36.8410000  -8.0160000   0.9380000  37.5270000  -8.7920000   2.9430000
  37.3374982  -9.3468643   3.7653832  38.7860000  -8.0580000   2.8790000
  38.5842342  -6.9938796   2.7563721  39.5950000  -8.2570000   4.1590000
  39.2660244  -9.1829095   4.6307689  40.6446844  -8.3455286   3.8789548
  39.4260000  -7.0980000   5.1400000  38.8740000  -6.0360000   4.7310000
  39.8400000  -7.2530000   6.3200000  39.6100000  -8.4650000   1.6770000
  40.3250000  -7.6340000   1.1080000  39.5440000  -9.7330000   1.2770000
  39.0580186 -10.4442302   1.8043263  40.2690000 -10.1360000   0.0770000
  41.2942194  -9.7682844   0.1195383  40.3010000 -11.6650000  -0.0300000
  39.2715329 -12.0087952   0.0705071  40.6669990 -11.9026582  -1.0288310
  41.1800000 -12.3670000   1.0180000  42.1424919 -11.8579230   1.0685059
  40.6722061 -12.2790559   1.9784740  41.4000000 -13.8330000   0.6950000
  40.3990000 -14.5710000   0.5900000  42.5680000 -14.2490000   0.5270000
  39.6540000  -9.5010000  -1.1670000  40.3730000  -9.1010000  -2.0900000
  38.3290000  -9.3680000  -1.1960000  37.7436551  -9.7752313  -0.4807145
  37.6830000  -8.7140000  -2.3290000  38.0496910  -9.0734400  -3.2904779
  36.1600000  -8.9240000  -2.2500000  35.8285264  -8.6691284  -1.2433888
  35.4220000  -8.0570000  -3.2620000  35.7526296  -8.3116358  -4.2689485
  34.3494435  -8.2317539  -3.1772398  35.6351027  -7.0063486  -3.0649770
  35.8600000 -10.4200000  -2.4360000  36.1351476 -10.6598315  -3.4630713
  36.5207940 -10.9501384  -1.7501399  34.4200000 -10.8460000  -2.1840000
  33.7586144 -10.3165874  -2.8698508  34.3248499 -11.9198992  -2.3445805
  34.1442601 -10.6068920  -1.1569193  38.0690000  -7.2350000  -2.3870000
  38.4730000  -6.7210000  -3.4390000  37.9690000  -6.5320000  -1.2540000
  37.5987003  -6.9397412  -0.4074042  38.3250000  -5.1180000  -1.2420000
  37.6732921  -4.5662107  -1.9194250  38.1670000  -4.5400000   0.1690000
  38.7606605  -5.2081484   0.7928944  38.5624111  -3.5270019   0.2437329
  36.7100000  -4.5560000   0.6460000  36.4171754  -5.5943565   0.8014680
  36.5160000  -3.7790000   1.9320000  36.8081989  -2.7403719   1.7771764
  35.4677156  -3.8207635   2.2277304  37.1323086  -4.2160317   2.7176637
  35.7570000  -4.0560000  -0.4410000  35.8385618  -4.6965386  -1.3191557
  34.7333947  -4.0813382  -0.0672469  36.0189806  -3.0333221  -0.7122839
  39.7370000  -4.9140000  -1.7640000  39.9960000  -3.9780000  -2.5240000
  40.6660000  -5.7900000  -1.3880000  40.4665115  -6.5388924  -0.7403397
  42.0270000  -5.6620000  -1.9000000  42.4041933  -4.6480716  -1.7666827
  42.9730000  -6.6300000  -1.1980000  42.6884244  -7.6534641  -1.4422094
  44.4200000  -6.3750000  -1.6620000  44.7054666  -5.3518069  -1.4176963
  45.0916658  -7.0694111  -1.1572651  44.4879525  -6.5231327  -2.7397475
  42.8520000  -6.4710000   0.2150000  43.4473829  -7.0802077   0.6577025
  42.0810000  -5.9310000  -3.3940000  42.7850000  -5.2310000  -4.1300000
  41.3690000  -6.9600000  -3.8590000  40.8107350  -7.5486939  -3.2574363
  41.4570000  -7.3020000  -5.2690000  42.5003987  -7.3028915  -5.5843055
  40.8710000  -8.6870000  -5.5200000  41.4713525  -9.3953091  -4.9490584
  39.8529705  -8.6776635  -5.1306046  40.8500000  -9.1080000  -6.9970000
  40.2712861 -10.0304298  -7.0451073  40.3216527  -8.3198273  -7.5334094
  42.4530000  -9.3750000  -7.7670000  43.0620000 -10.6830000  -6.7190000
  42.3890755 -11.5385413  -6.7766263  44.0568834 -10.9809876  -7.0499245
  43.1128138 -10.3301050  -5.6889591  40.7690000  -6.2590000  -6.1370000
  41.2220000  -5.9920000  -7.2550000  39.6870000  -5.6440000  -5.6580000
  39.2652940  -5.8586466  -4.7657051  39.0200000  -4.6810000  -6.5230000
  38.7919653  -5.1446586  -7.4827500  37.7150000  -4.2020000  -5.8900000
  37.1364448  -3.7606504  -6.7015317  37.2117607  -5.1003515  -5.5324879
  37.8340000  -3.2110000  -4.7620000  38.0842625  -3.7570639  -3.8524486
  38.6389948  -2.5160720  -5.0010767  36.5320000  -2.4300000  -4.5470000
  35.6010000  -2.5340000  -5.3990000  36.4450000  -1.7140000  -3.5250000
  39.9550000  -3.5270000  -6.8500000  40.0350000  -3.0870000  -8.0020000
  40.7220000  -3.0700000  -5.8590000  40.6023774  -3.4102135  -4.9155783
  41.7070000  -2.0200000  -6.0960000  41.2327478  -1.1569574  -6.5632703
  42.3200000  -1.5800000  -4.7650000  42.4575356  -2.5258515  -4.2410266
  43.2931750  -1.1336688  -4.9694967  41.4950000  -0.6280000  -3.8920000
  40.4409454  -0.8826422  -4.0025765  41.8980000  -0.7360000  -2.4010000
  42.9518848  -0.4810362  -2.2895584  41.2937473  -0.0477454  -1.8099965
  41.7324881  -1.7553606  -2.0522736  41.6490000   0.7970000  -4.4070000
  41.2961719   0.8518121  -5.4368580  41.0621649   1.4737530  -3.7859275
  42.6990359   1.0867393  -4.3673183  42.7920000  -2.4780000  -7.0650000
  43.2040000  -1.7240000  -7.9530000  43.2940000  -3.7000000  -6.8980000
  43.0201471  -4.2931618  -6.1277643  44.3090000  -4.1940000  -7.8260000
  45.1789818  -3.5377145  -7.8031932  44.7520000  -5.6070000  -7.4390000
  43.8645892  -6.2360867  -7.5086504  45.4768891  -5.9176080  -8.1914350
  45.3670000  -5.7490000  -6.0530000  46.3612760  -5.3023337  -6.0506938
  44.7380842  -5.2381769  -5.3238726  45.4990000  -7.4960000  -5.6040000
  46.2660000  -8.1660000  -7.0860000  47.2294090  -7.6824102  -7.2475024
  46.4143596  -9.2391179  -6.9655503  45.6198175  -7.9831779  -7.9445602
  43.7720000  -4.1860000  -9.2480000  44.4430000  -3.7250000 -10.1820000
  42.5470000  -4.6880000  -9.4290000  42.0337948  -5.1055299  -8.6658561
  41.9580000  -4.7270000 -10.7600000  42.6211733  -5.2268220 -11.4660299
  40.6030000  -5.4510000 -10.7300000  39.9942220  -5.0320298  -9.9287798
  39.8810000  -5.2810000 -12.0560000  40.4889996  -5.7001788 -12.8577021
  38.9231438  -5.7998050 -12.0178744  39.7121530  -4.2208839 -12.2450598
  40.8240000  -6.9300000 -10.4100000  41.3098210  -7.3729336 -11.2794185
  41.5001710  -6.9716274  -9.5560917  39.5490000  -7.7080000 -10.0880000
  38.8724840  -7.6672115 -10.9416757  39.8008283  -8.7466817  -9.8739393
  39.0628326  -7.2659034  -9.2183497  41.8400000  -3.3180000 -11.3080000
  42.3520000  -3.0100000 -12.3870000  41.2310000  -2.4240000 -10.5350000
  40.8770185  -2.6606854  -9.6191526  40.9600000  -1.0910000 -11.0570000
  40.4651764  -1.1641033 -12.0254548  40.0440000  -0.3220000 -10.0950000
  40.5253649  -0.2853659  -9.1177359  39.9189478   0.6915339 -10.4760657
  38.6690000  -0.9920000  -9.9630000  38.2908482  -1.1044325 -10.9791009
  38.8545953  -1.9766547  -9.5339178  37.4330000  -0.1290000  -8.9600000
  38.1850000  -0.1750000  -7.3450000  39.1466109   0.3372501  -7.3766733
  37.5331779   0.3210582  -6.6258652  38.3358200  -1.2114867  -7.0432552
  42.2550000  -0.3380000 -11.3470000  42.3750000   0.3160000 -12.3870000
  43.2490000  -0.4370000 -10.4660000  43.1349100  -0.8918043  -9.5714410
  44.5280000   0.2060000 -10.7580000  44.3696364   1.2554138 -11.0064972
  45.4460000   0.1260000  -9.5390000  45.6536008  -0.9251742  -9.3389150
  46.3763722   0.6399904  -9.7804984  44.8180000   0.7650000  -8.3020000
  44.1611401   1.5651506  -8.6431670  44.2264483  -0.0011913  -7.8008818
  45.8440000   1.3310000  -7.3290000  46.5600677   1.9257819  -7.8960807
  45.3225749   1.9717946  -6.6179461  46.5760000   0.2400000  -6.5810000
  45.8496992  -0.4179450  -6.1038248  47.1794389  -0.3346651  -7.2836526
  47.4620000   0.8410000  -5.5400000  46.9029841   1.3731869  -4.8885570
  47.9468852   0.1059148  -5.0453929  48.1353552   1.4503709  -5.9819943
  45.1760000  -0.4160000 -11.9900000  45.6180000   0.2980000 -12.8960000
  45.2040000  -1.7530000 -12.0640000  44.8353858  -2.3268931 -11.3191043
  45.8350000  -2.4190000 -13.2070000  46.8699445  -2.0823593 -13.2675147
  45.8250000  -3.9350000 -13.0180000  44.7952022  -4.2882458 -12.9647656
  46.3284249  -4.4099744 -13.8600587  46.3442271  -4.1899221 -12.0941401
  45.1560000  -2.0520000 -14.5160000  45.8130000  -1.9490000 -15.5600000
  43.8430000  -1.8760000 -14.4880000  43.3099077  -2.0634448 -13.6508761
  43.1270000  -1.4610000 -15.6820000  43.5910281  -1.9045927 -16.5629101
  41.6670000  -1.9140000 -15.6180000  41.3331760  -1.5543753 -14.6446908
  41.1298420  -1.3838310 -16.4044364  41.3860000  -3.4150000 -15.7310000
  41.7703281  -3.9246510 -14.8474568  39.8760000  -3.6450000 -15.8360000
  39.4909993  -3.1359984 -16.7196236  39.6754092  -4.7133585 -15.9164621
  39.3850274  -3.2496218 -14.9467743  42.1020000  -4.0290000 -16.9260000
  43.1773294  -3.8871122 -16.8181390  41.8797990  -5.0949884 -16.9749552
  41.7622420  -3.5451350 -17.8417173  43.1760000   0.0410000 -15.9000000
  42.5120000   0.5360000 -16.8150000  43.9220000   0.7810000 -15.0790000
  44.4053581   0.3471780 -14.3055255  43.9860000   2.2350000 -15.2080000
  44.5463316   2.6552119 -14.3728056  44.6860000   2.6290000 -16.5160000
  44.1178908   2.2029975 -17.3429662  44.6737896   3.7164450 -16.5895819
  46.1340000   2.1290000 -16.5800000  46.6396915   2.4268989 -15.6615050
  46.1176019   1.0412930 -16.6487513  46.8730000   2.6970000 -17.7680000
  46.6942830   2.0554421 -18.6308804  46.4897881   3.6965156 -17.9734667
  48.3750000   2.7740000 -17.4930000  48.6784749   3.8024804 -17.6885289
  48.5132437   2.5497732 -16.4353090  49.2140000   1.8400000 -18.3160000
  49.0863753   2.0478889 -19.2960989  50.1868256   1.9568486 -18.0709350
  48.9332412   0.8869082 -18.1346452  42.5950000   2.8700000 -15.1060000
  42.3210000   3.9000000 -15.7220000  41.7040000   2.2690000 -14.3140000
  41.9518887   1.3693329 -13.9276714  40.3690000   2.7940000 -14.0440000
  39.8263498   2.1035008 -13.3983679  40.4530000   4.1520000 -13.3460000
  41.0072728   4.8629100 -13.9587707  39.4585748   4.5481987 -13.1404639
  41.1640000   4.0750000 -12.0300000  42.5000000   4.2720000 -11.7990000
  43.1188268   4.5199075 -12.6613776  42.7770000   4.1050000 -10.4650000
  43.6882774   4.1880248 -10.0374724  41.6140000   3.8010000  -9.8070000
  41.3890000   3.5450000  -8.4610000  42.2331780   3.5832165  -7.7725222
  40.1060000   3.2580000  -8.0830000  39.8859828   3.0530854  -7.0352870
  39.0630000   3.2210000  -9.0150000  38.0450876   2.9869107  -8.7033012
  39.2870000   3.4770000 -10.3450000  38.4391317   3.4300097 -11.0283827
  40.5810000   3.7740000 -10.7620000  39.5280000   2.8930000 -15.3000000
  38.5590000   3.6600000 -15.3520000  39.9060000   2.1320000 -16.3180000
  40.7413052   1.5769099 -16.1986704  39.2090000   2.0670000 -17.5990000
  38.7650649   3.0345503 -17.8332376  40.1870000   1.7020000 -18.7020000
  41.1499865   1.5658525 -18.2098414  39.8432066   0.7461416 -19.0972731
  40.3350000   2.6840000 -19.8270000  39.4692386   3.3430184 -19.8922126
  41.2387264   3.2825083 -19.7122461  40.4370000   1.8420000 -21.1130000
  40.4087746   0.7912601 -20.8244728  39.5683774   2.0723097 -21.7298887
  41.6440000   2.0790000 -21.8980000  42.4953429   1.6089690 -21.6252628
  41.6740000   2.8810000 -22.9560000  40.5560000   3.5040000 -23.3280000
  39.7038031   3.3607178 -22.8051897  40.5661183   4.1165241 -24.1310015
  42.8100000   3.0630000 -23.6350000  43.6515889   2.5876562 -23.3419529
  42.8220743   3.6751109 -24.4382890  38.1170000   1.0190000 -17.4450000
  38.2960000  -0.1570000 -17.7610000  36.9750000   1.4380000 -16.9250000
  36.8172104   2.4253122 -16.7821141  35.9540000   0.5070000 -16.4820000
  36.2121799  -0.5065558 -16.7888336  35.8450000   0.5430000 -14.9600000
  35.3798630   1.4970644 -14.7119921  35.1985355  -0.2715740 -14.6334224
  37.1950000   0.4360000 -14.2530000  37.9574019   0.9451300 -14.8426022
  37.0990000   1.0760000 -12.9020000  36.3370686   0.5670774 -12.3116128
  38.0609200   1.0013042 -12.3948204  36.8290580   2.1259678 -13.0151340
  37.6070000  -1.0240000 -14.1260000  37.6881252  -1.4668391 -15.1186790
  38.5706294  -1.0874859 -13.6205406  36.8576609  -1.5645369 -13.5477183
  34.6200000   0.8160000 -17.1330000  33.5670000   0.5080000 -16.5770000
  34.6580000   1.4270000 -18.3180000  35.5514471   1.6160032 -18.7494272
  33.4460000   1.8840000 -19.0020000  32.5628162   1.5129850 -18.4819678
  33.3960000   3.4080000 -19.0210000  34.1842932   3.7716711 -19.6801178
  32.4260512   3.7173496 -19.4103612  33.5780000   3.9480000 -17.7260000
  33.5415095   4.9062565 -17.7708632  33.3820000   1.3380000 -20.4230000
  33.2450000   2.0960000 -21.3820000  33.4930000   0.0250000 -20.6010000
  33.5400000  -1.0480000 -19.5900000  32.6792985  -0.9562377 -18.9275251
  34.4571046  -0.9545742 -19.0083732  33.5060000  -2.3270000 -20.4210000
  32.4835700  -2.6977211 -20.4938140  34.1359268  -3.0880145 -19.9604019
  34.0430000  -1.9290000 -21.7680000  33.6223279  -2.6060866 -22.5114297
  35.1266976  -1.8951894 -21.8800536  33.4560000  -0.5290000 -21.9490000
  34.0338448   0.1126863 -22.6141558  32.0280000  -0.6120000 -22.4440000
  31.0710000  -0.6440000 -21.6730000  31.8970000  -0.6320000 -23.7560000
  32.6219457  -0.2741880 -24.3614120  30.6790000  -1.1310000 -24.3630000
  29.8127477  -0.7793654 -23.8025901  30.5650000  -0.6320000 -25.8010000
  31.3117268  -1.1883935 -26.3675021  29.5739597  -0.8413366 -26.2036379
  30.8530000   0.8620000 -25.9110000  31.8366809   1.0670276 -25.4885826
  30.8260000   1.2960000 -27.3550000  29.8424194   1.0917005 -27.7780009
  31.0331806   2.3642859 -27.4177865  31.5828571   0.7461481 -27.9144020
  29.8520000   1.6300000 -25.0840000  29.9284284   1.3215638 -24.0413470
  30.0577656   2.6975140 -25.1625848  28.8455114   1.4266242 -25.4496745
  30.7470000  -2.6520000 -24.2810000  31.5980000  -3.2770000 -24.9230000
  29.8910000  -3.2570000 -23.4690000  29.2262392  -2.7438085 -22.9079056
  29.9150000  -4.7020000 -23.3560000  30.9384592  -5.0444687 -23.2032075
  29.0670000  -5.1630000 -22.1790000  29.1428604  -6.2467166 -22.0900965
  29.5440000  -4.5190000 -20.9000000  29.4679945  -3.4352186 -20.9879810
  28.9266305  -4.8597192 -20.0688175  30.5823419  -4.7963218 -20.7182331
  27.7010000  -4.7950000 -22.4160000  27.1593682  -5.0825899 -21.6774017
  29.3900000  -5.3510000 -24.6340000  28.8290000  -4.7020000 -25.5220000
  29.5630000  -6.6680000 -24.7060000  30.1588874  -7.1538940 -24.0510767
  28.9660000  -7.4310000 -25.7940000  29.2867556  -7.0444310 -26.7613569
  29.3720000  -8.9110000 -25.6730000  29.2681706  -9.2153121 -24.6315040
  28.5050000  -9.7920000 -26.5440000  28.6086637  -9.4885706 -27.5857702
  28.8172470 -10.8307043 -26.4358526  27.4632273  -9.6926925 -26.2391283
  30.8360000  -9.0500000 -26.0680000  30.8946030  -8.9248233 -27.1492018
  31.3828638  -8.2436791 -25.5792403  31.4280000 -10.3410000 -25.6920000
  30.8819165 -11.1478382 -26.1807789  32.4717386 -10.3676298 -26.0050493
  31.3701752 -10.4666949 -24.6108169  27.4560000  -7.2460000 -25.8010000
  26.8400000  -7.0480000 -26.8540000  26.8300000  -7.2900000 -24.6290000
  27.3045327  -7.4181711 -23.7466791  25.3820000  -7.2380000 -24.6290000
  24.9483310  -7.7577015 -25.4833657  24.8100000  -7.8470000 -23.3430000
  25.2902732  -8.8078992 -23.1583120  25.0640000  -6.9170000 -22.1620000
  24.5836069  -5.9559829 -22.3457650  24.6533183  -7.3603430 -21.2548683
  26.1369396  -6.7687975 -22.0397779  23.3280000  -8.1330000 -23.5320000
  23.1949228  -8.8341675 -24.3558669  22.9215029  -8.5658451 -22.6179404
  22.8041027  -7.2042174 -23.7578212  24.8750000  -5.8210000 -24.8220000
  23.7310000  -5.6410000 -25.2610000  25.6870000  -4.8050000 -24.5280000
  26.5835313  -4.9331661 -24.0808933  25.2400000  -3.4450000 -24.8030000
  24.2725811  -3.2695065 -24.3324664  26.2430000  -2.4370000 -24.2470000
  25.7675499  -1.4579018 -24.1885787  26.5477885  -2.7524448 -23.2491530
  27.3850000  -2.3590000 -25.0880000  28.0058517  -1.7223433 -24.7263216
  25.0360000  -3.2300000 -26.2980000  24.1220000  -2.5060000 -26.7090000
  25.8730000  -3.8520000 -27.1260000  26.6800224  -4.3489435 -26.7769135
  25.6690000  -3.7910000 -28.5710000  25.5861578  -2.7520038 -28.8899409
  26.8460000  -4.4330000 -29.3010000  27.1019670  -5.3818311 -28.8295133
  26.5979589  -4.6036807 -30.3485895  28.0560000  -3.6200000 -29.2860000
  29.1800000  -3.8290000 -28.5420000  29.1855994  -4.6966884 -27.8823143
  30.1030000  -2.8460000 -28.8050000  31.0210505  -2.7733086 -28.3902727
  29.5760000  -1.9810000 -29.7280000  30.1260000  -0.8400000 -30.3080000
  31.1341451  -0.5407266 -30.0213336  29.3560000  -0.1630000 -31.2090000
  29.7490172   0.7395959 -31.6769295  28.0670000  -0.6000000 -31.5500000
  27.4650656  -0.0511842 -32.2742760  27.5240000  -1.7310000 -30.9830000
  26.5232834  -2.0356007 -31.2894072  28.2840000  -2.4420000 -30.0490000
  24.3760000  -4.4810000 -28.9690000  23.5900000  -3.9430000 -29.7510000
  24.1640000  -5.7010000 -28.4770000  24.8604040  -6.1629716 -27.9098113
  22.9240000  -6.4110000 -28.7630000  22.8751853  -6.6556730 -29.8240615
  22.8520000  -7.7050000 -27.9610000  23.6243278  -8.3520091 -28.3769186
  23.0596085  -7.5238925 -26.9063916  21.4950000  -8.3800000 -28.1020000
  20.7165676  -7.7795357 -27.6312703  21.2080000  -8.5050000 -29.5900000
  21.9858135  -9.1057635 -30.0613684  20.2405061  -8.9857096 -29.7348264
  21.1916568  -7.5132580 -30.0419746  21.4580000  -9.7390000 -27.3860000
  21.6609430  -9.5966761 -26.3245588  20.4729194 -10.1888465 -27.5099176
  22.2138532 -10.3969142 -27.8148751  21.7350000  -5.5480000 -28.4210000
  20.7550000  -5.4800000 -29.1710000  21.7990000  -4.8880000 -27.2740000
  22.6004450  -4.9552348 -26.6630461  20.6710000  -4.0910000 -26.8410000
  19.7504109  -4.6713230 -26.9029680  20.8790000  -3.6670000 -25.4050000
  20.9035804  -4.5307476 -24.7405942  21.8341159  -3.1440952 -25.3557636
  19.8100000  -2.7460000 -24.9460000  19.9940000  -1.5220000 -24.9330000
  18.6460000  -3.3130000 -24.6030000  17.8815451  -2.7357320 -24.2828905
  18.5380393  -4.3152336 -24.6660332  20.4760000  -2.8800000 -27.7410000
  19.3490000  -2.5380000 -28.1070000  21.5610000  -2.2180000 -28.1120000
  22.4689279  -2.4109369 -27.7138271  21.4390000  -1.1100000 -29.0450000
  20.6983798  -0.3823844 -28.7131019  22.7950000  -0.3970000 -29.1980000
  23.5909695  -1.1368624 -29.1135289  22.8930000   0.2940000 -30.5290000
  22.0975768   1.0343875 -30.6140244  23.8603088   0.7896200 -30.6113102
  22.7922907  -0.4401307 -31.3283819  22.9640000   0.6030000 -28.0620000
  22.9320668   0.0779649 -27.1073166  23.9226400   1.1115282 -28.1645087
  22.1584264   1.3362907 -28.0999058  20.8870000  -1.5990000 -30.3770000
  20.0030000  -0.9660000 -30.9660000  21.3860000  -2.7410000 -30.8670000
  22.1170185  -3.2491583 -30.3900445  20.9140000  -3.2500000 -32.1530000
  21.0979751  -2.5083261 -32.9302852  21.6420000  -4.5400000 -32.5270000
  21.4873302  -5.2357813 -31.7023395  21.1675431  -4.9322727 -33.4265070
  23.1170000  -4.3720000 -32.7710000  23.6550000  -3.1200000 -33.0670000
  22.9918382  -2.2562630 -33.1146888  24.9950000  -2.9670000 -33.2960000
  25.4193646  -1.9913885 -33.5330626  25.8170000  -4.0850000 -33.2320000
  27.1630000  -3.9800000 -33.4450000  27.4440020  -3.0815821 -33.6333688
  25.3070000  -5.3320000 -32.9430000  25.9594651  -6.2038717 -32.8957819
  23.9710000  -5.4680000 -32.7150000  23.5545812  -6.4484648 -32.4839496
  19.4120000  -3.4850000 -32.1210000  18.7130000  -3.2150000 -33.1050000
  18.8930000  -3.9610000 -30.9850000  19.4799772  -4.1549697 -30.1862930
  17.4720000  -4.2800000 -30.8930000  17.1589574  -4.8330536 -31.7785706
  17.1970000  -5.1380000 -29.6590000  17.6549808  -4.6400258 -28.8043805
  16.1165518  -5.1765587 -29.5202738  17.7440000  -6.5530000 -29.7740000
  18.8188289  -6.4651110 -29.9324905  17.5570350  -7.0434084 -28.8186751
  17.0260000  -7.5480000 -31.1040000  15.4730000  -8.0560000 -30.3610000
  14.8826154  -7.1739530 -30.1129313  14.9189957  -8.6772538 -31.0647213
  15.6729859  -8.6257175 -29.4535151  16.6210000  -3.0180000 -30.8660000
  15.5340000  -2.9840000 -31.4590000  17.0940000  -1.9710000 -30.1800000
  17.9003037  -2.0540124 -29.5774366  16.4130000  -0.6820000 -30.2510000
  15.3975490  -0.7805108 -29.8672631  17.1460000   0.3560000 -29.4220000
  18.2058771   0.2699556 -29.6614916  16.7815844   1.3344385 -29.7349848
  16.9550000   0.2020000 -27.9510000  15.9629453   0.5626470 -27.6792242
  17.0483767  -0.8476468 -27.6723882  17.9870000   1.0000000 -27.1830000
  18.7000000   1.8260000 -27.7680000  18.0840000   0.7560000 -25.8700000
  18.7576571   1.2627799 -25.3137073  17.4830660   0.0662869 -25.4418930
  16.2950000  -0.2060000 -31.6870000  15.2200000   0.2110000 -32.1210000
  17.3990000  -0.2480000 -32.4380000  18.2922122  -0.4863692 -32.0312428
  17.3590000   0.1300000 -33.8500000  17.0419087   1.1612734 -34.0050081
  18.7460000  -0.0590000 -34.4880000  19.0671368  -1.0910818 -34.3473671
  18.6850000   0.2540000 -35.9730000  18.3643591   1.2861281 -36.1144281
  19.6720864   0.1169810 -36.4145730  17.9747130  -0.4161663 -36.4572223
  19.7750000   0.7980000 -33.7800000  19.8261667   0.5118139 -32.7294851
  20.7507188   0.6525689 -34.2435970  19.4896111   1.8471742 -33.8567294
  16.2910000  -0.6640000 -34.5980000  15.5720000  -0.1240000 -35.4490000
  16.1820000  -1.9640000 -34.3090000  16.8292938  -2.4187725 -33.6810731
  15.1550000  -2.7760000 -34.9500000  15.2832791  -2.7249482 -36.0312203
  15.2920000  -4.2340000 -34.5100000  15.1569132  -4.3025345 -33.4305767
  14.5341768  -4.8375502 -35.0095312  16.2827079  -4.6027140 -34.7757954
  13.7610000  -2.2470000 -34.6340000  12.9300000  -2.0880000 -35.5360000
  13.5060000  -1.9440000 -33.3590000  14.2603656  -2.0663309 -32.6986463
  12.1850000  -1.5900000 -32.8440000  11.3940205  -2.1342749 -33.3599608
  12.1660000  -1.9890000 -31.3500000  11.7723605  -3.0044450 -31.3050713
  13.2359218  -2.0051186 -31.1423763  11.4550000  -1.1180000 -30.3040000
  10.4130000  -1.6460000 -29.5270000  10.1053812  -2.6774554 -29.6989592
   9.7730000  -0.8800000 -28.5500000   8.9465124  -1.2988464 -27.9759027
  10.1930000   0.4260000 -28.3140000   9.5720000   1.1990000 -27.3430000
   8.8629149   0.7354914 -26.8913831  11.2450000   0.9640000 -29.0510000
  11.5746655   1.9866972 -28.8679382  11.8790000   0.1890000 -30.0280000
  12.7180504   0.5996542 -30.5896562  11.7940000  -0.1250000 -33.1150000
  10.5990000   0.1740000 -33.1840000  12.7500000   0.7930000 -33.3040000
  13.7138710   0.6042451 -33.0685780  12.4090000   2.1200000 -33.8260000
  11.4763804   2.4548520 -33.3719142  13.5100000   3.1570000 -33.5140000
  14.3628954   2.5816194 -33.8740082  13.3094881   3.9778841 -34.2025087
  13.8280000   3.7270000 -32.1110000  14.1920792   2.9246796 -31.4692608
  14.9030000   4.8190000 -32.2250000  14.5394401   5.6219377 -32.8662597
  15.1235296   5.2172784 -31.2346254  15.8096846   4.3935139 -32.6550989
  12.6080000   4.2590000 -31.3450000  11.8881533   3.4530464 -31.2023156
  12.9252984   4.6382593 -30.3736168  12.1433562   5.0638464 -31.9145853
  12.1820000   2.1020000 -35.3340000  11.5760000   3.0420000 -35.8680000
  12.6420000   1.0510000 -36.0170000  12.9889532   0.2592218 -35.4946878
  12.7380000   1.0150000 -37.4780000  13.1676354   0.0627724 -37.7890870
  11.3510000   1.1680000 -38.1350000  10.7434880   1.8134322 -37.5006138
  11.4717099   1.6313458 -39.1142037  10.6250000  -0.1670000 -38.3120000
  10.5990000  -0.9950000 -37.3960000  10.0410000  -0.3820000 -39.5000000
   9.5487458  -1.2477773 -39.6679741  10.0961056   0.3228421 -40.2212918
  13.7030000   2.1030000 -37.9890000  13.6970000   3.2540000 -37.5240000
   8.2210000 -12.2610000 -37.2570000   9.0410000 -12.2860000 -38.4850000
   8.9718000 -11.3214970 -38.9880364   8.6762061 -13.0689452 -39.1498467
  10.4470000 -12.5750000 -37.9610000  11.1597919 -11.9037322 -38.4399847
  10.7143979 -13.6077328 -38.1847470  10.3870000 -12.3380000 -36.4290000
  10.5079874 -11.2919825 -36.1473823  11.1050016 -12.9469981 -35.8797326
   8.9680000 -12.7980000 -36.1160000   8.8816108 -13.8832506 -36.1695384
   8.4920000 -12.3160000 -34.7430000   8.3200000 -13.1530000 -33.8540000
   8.2790000 -11.0050000 -34.5830000   8.5886731 -10.3873281 -35.3196705
   7.6810000 -10.4100000 -33.3810000   7.8007594  -9.3269365 -33.4080257
   6.1880000 -10.7350000 -33.3040000   6.0984053 -11.7826609 -33.0168090
   5.7590580 -10.1068277 -32.5232898   5.4460000 -10.5030000 -34.6020000
   6.1749873 -10.4360057 -35.4095829   4.7778695 -11.3445064 -34.7852231
   4.6280000  -9.2320000 -34.5830000   3.3920000  -9.2720000 -34.6720000
   5.3110000  -8.0890000 -34.4740000   4.8164918  -7.2085201 -34.4561611
   6.3187352  -8.1105939 -34.4099310   8.3480000 -10.8470000 -32.0770000
   9.2790000 -11.6590000 -32.0860000   7.8650000 -10.3010000 -30.9470000
   7.1015975  -9.6522921 -31.0754292   8.3830000 -10.5060000 -29.5890000
   7.8266576  -9.8921123 -28.8806751   8.2330000 -11.9730000 -29.1870000
   8.4888665 -12.5648625 -30.0658233   8.9483845 -12.1780958 -28.3905951
   6.8450000 -12.3380000 -28.7220000   5.8610000 -11.3640000 -28.5630000
   6.1033809 -10.3248520 -28.7855362   4.5930000 -11.7000000 -28.1300000
   3.8248153 -10.9358499 -28.0113884   4.3010000 -13.0290000 -27.8460000
   3.0490000 -13.3930000 -27.4160000   2.4460122 -12.6494233 -27.3445926
   5.2640000 -14.0100000 -27.9890000   5.0358716 -15.0513193 -27.7615974
   6.5230000 -13.6600000 -28.4240000   7.2911738 -14.4243714 -28.5412413
   9.8440000 -10.0690000 -29.4110000  10.7470000 -10.9220000 -29.4380000
  10.1210000  -8.7640000 -29.2020000   9.2390000  -7.5960000 -29.3360000
   8.6797620  -7.4443924 -28.4127621   8.5430091  -7.7482816 -30.1609279
  10.2200000  -6.4820000 -29.6090000   9.7944137  -5.5240247 -29.3102381
  10.4705257  -6.4528104 -30.6694179  11.3900000  -6.8180000 -28.8070000
  11.2327023  -6.5589233 -27.7599872  12.2983540  -6.3353893 -29.1676654
  11.5120000  -8.3410000 -28.9550000  12.0965185  -8.6136805 -29.8336818
  12.1300000  -8.9730000 -27.7210000  13.3070000  -9.3640000 -27.7550000
  11.3790000  -9.0830000 -26.6220000  10.4445506  -8.7046005 -26.5610285
  11.9540000  -9.7010000 -25.4320000  12.8458245  -9.1554124 -25.1236458
  10.9490000  -9.6760000 -24.2890000   9.9559620  -9.8287715 -24.7116532
  11.1868347 -10.4987405 -23.6147354  10.9750000  -8.3790000 -23.5260000
  12.0100241  -8.1114791 -23.3132595  10.5178265  -7.6016374 -24.1382105
  10.2230000  -8.4700000 -22.2220000   9.2270000  -9.1920000 -22.1310000
  10.6930000  -7.7400000 -21.1940000  10.2220430  -7.7691098 -20.3009975
  11.5146086  -7.1662640 -21.3200464  12.4250000 -11.1260000 -25.7150000
  13.5280000 -11.5170000 -25.3080000  11.6140000 -11.9110000 -26.4280000
  10.7178504 -11.5785859 -26.7543679  11.9610000 -13.3070000 -26.6640000
  12.2693801 -13.7872260 -25.7353537  10.7290000 -14.0410000 -27.2100000
   9.8965746 -13.7350100 -26.5763302  10.5776235 -13.6564796 -28.2186274
  10.8030000 -15.5820000 -27.2530000  10.0369149 -15.9201058 -27.9507815
  11.7854188 -15.8763379 -27.6222161  10.5650000 -16.2610000 -25.8960000
  11.3700000 -17.0900000 -25.4560000   9.4530000 -15.9290000 -25.2450000
   9.2518870 -16.3486100 -24.3485724   8.8151668 -15.2589118 -25.6502801
  13.1770000 -13.4380000 -27.5900000  14.0660000 -14.2620000 -27.3420000
  13.2580000 -12.6290000 -28.6490000  12.5227928 -11.9864787 -28.9073334
  14.4230000 -12.7410000 -29.5290000  14.6712490 -13.7889636 -29.6970591
  14.1740000 -12.0490000 -30.8830000  13.6538477 -12.7405410 -31.5458070
  13.3390000 -10.8140000 -30.6930000  13.8587439 -10.1217345 -30.0306290
  13.1714869 -10.3360067 -31.6581748  12.3802907 -11.0872499 -30.2521937
  15.5090000 -11.6960000 -31.5520000  16.0279430 -11.0104379 -30.8820720
  16.0772297 -12.6225176 -31.6343387  15.3770000 -11.0570000 -32.9300000
  14.8092432 -10.1301281 -32.8483877  16.3687243 -10.8411895 -33.3275021
  14.8585275 -11.7422075 -33.6006540  15.6780000 -12.1850000 -28.8610000
  16.7980000 -12.6080000 -29.1860000  15.5340000 -11.2200000 -27.9450000
  14.6514684 -10.7546907 -27.7877593  16.6990000 -10.7640000 -27.1960000
  17.4806086 -10.4508304 -27.8881791  16.3380000  -9.5820000 -26.3010000
  15.8172626  -8.8159871 -26.8755921  15.7041415  -9.9116921 -25.4778192
  17.5330000  -8.9170000 -25.6830000  18.0180000  -9.3260000 -24.4570000
  17.5234301 -10.1410571 -23.9286229  19.1260000  -8.7080000 -23.8970000
  19.5029863  -9.0428481 -22.9306363  19.7520000  -7.6700000 -24.5610000
  20.6221295  -7.1822584 -24.1215882  19.2740000  -7.2540000 -25.7780000
  19.7600418  -6.4331560 -26.3053317  18.1740000  -7.8780000 -26.3350000
  17.7964379  -7.5537455 -27.3047452  17.2880000 -11.9110000 -26.3790000
  18.4700000 -12.2410000 -26.5180000  16.4610000 -12.5490000 -25.5440000
  15.5456944 -12.1458367 -25.4033786  16.8180000 -13.7440000 -24.7780000
  17.4920531 -13.4821670 -23.9624051  15.5490000 -14.4180000 -24.2020000
  14.7183855 -14.1912166 -24.8703930  15.6930000 -15.9280000 -24.0660000
  16.5231839 -16.1555742 -23.3973407  14.7729558 -16.3459034 -23.6573728
  15.8860725 -16.3648029 -25.0458088  15.2430000 -13.8260000 -22.8500000
  14.2916452 -13.2965113 -22.9016380  15.1710769 -14.6307609 -22.1183673
  16.3170000 -12.8780000 -22.4410000  16.3892105 -12.0726539 -23.1719605
  16.0800570 -12.4598535 -21.4626796  17.2686432 -13.4069036 -22.3886920
  17.6060000 -14.7260000 -25.6290000  18.6300000 -15.2570000 -25.1950000
  17.1280000 -14.9880000 -26.8380000  16.3385080 -14.4936905 -27.2284611
  17.6810000 -16.1050000 -27.5870000  17.9085210 -16.9371543 -26.9207774
  16.6500000 -16.5720000 -28.6190000  16.5232060 -15.7879572 -29.3655249
  17.0231819 -17.4753840 -29.1014237  15.2820000 -16.8720000 -27.9460000
  15.4588536 -17.6146461 -27.1679895  14.9326566 -15.9454316 -27.4904429
  14.1920000 -17.3970000 -28.8850000  14.2970000 -17.3090000 -30.1260000
  13.1260000 -17.9520000 -28.2850000  12.3695079 -18.3188865 -28.8446565
  13.0858211 -17.9998928 -27.2769359  19.0230000 -15.7500000 -28.2100000
  19.9310000 -16.5860000 -28.2190000  19.1860000 -14.5150000 -28.6950000
  18.4045925 -13.8802182 -28.7759551  20.4900000 -14.0750000 -29.1870000
  20.9364473 -14.8058549 -29.8612664  20.3780000 -12.7170000 -29.9040000
  20.0438248 -11.9624821 -29.1918694  21.7270000 -12.3140000 -30.4720000
  22.0616390 -13.0678581 -31.1846116  21.6365626 -11.3522478 -30.9769302
  22.4527200 -12.2321414 -29.6628468  19.3050000 -12.7510000 -30.9940000
  19.7031090 -13.3349149 -31.8238514  18.4348363 -13.2585849 -30.5777401
  18.9000000 -11.3830000 -31.4900000  19.7696085 -10.8749515 -31.9068545
  18.1363760 -11.4868210 -32.2608429  18.5013377 -10.7986204 -30.6607421
  21.4780000 -14.0040000 -28.0360000  22.6010000 -14.5120000 -28.1250000
  21.0690000 -13.3740000 -26.9320000  20.1799810 -12.8957149 -26.9005708
  21.9250000 -13.3200000 -25.7530000  22.8105469 -12.7286846 -25.9859208
  21.1870000 -12.6570000 -24.5920000  20.3025971 -13.2426613 -24.3411365
  21.8453678 -12.6045188 -23.7248796  20.8855331 -11.6499273 -24.8801344
  22.3900000 -14.7050000 -25.3430000  23.5620000 -14.8970000 -25.0090000
  21.4730000 -15.6800000 -25.3370000  20.5013385 -15.4600696 -25.5031439
  21.8280000 -17.0650000 -25.0350000  22.1874039 -17.1481129 -24.0093196
  20.5950000 -17.9540000 -25.1940000  19.7661845 -17.3806947 -24.7786867
  20.4543146 -18.0685895 -26.2687916  20.6400000 -19.3300000 -24.5380000
  21.5294046 -19.8445355 -24.9017492  20.7138389 -19.1967854 -23.4586943
  19.3840000 -20.1740000 -24.8690000  18.8810000 -20.1240000 -26.0290000
  18.8950000 -20.8830000 -23.9620000  22.9590000 -17.5450000 -25.9270000
  23.8470000 -18.2650000 -25.4650000  22.9580000 -17.1390000 -27.2000000
  22.1752273 -16.6308029 -27.5861372  24.0680000 -17.4800000 -28.0870000
  24.2880233 -18.5454939 -28.0205790  23.6970000 -17.1470000 -29.5320000
  22.8666561 -17.8213901 -29.7413472  23.3440210 -16.1162162 -29.5634731
  24.7880000 -17.3430000 -30.5810000  25.6000293 -16.6448553 -30.3777681
  25.3230000 -18.7660000 -30.5470000  24.5115829 -19.4647427 -30.7506167
  26.0992749 -18.8810352 -31.3034820  25.7421801 -18.9736929 -29.5624940
  24.2610000 -16.9990000 -31.9570000  23.9355825 -15.9588245 -31.9724236
  25.0497843 -17.1433730 -32.6952933  23.4174524 -17.6466388 -32.1959360
  25.3500000 -16.7540000 -27.6760000  26.4260000 -17.3590000 -27.5980000
  25.2550000 -15.4540000 -27.4050000  24.3936171 -14.9453393 -27.5442234
  26.4310000 -14.7140000 -26.9730000  27.2398013 -14.8368167 -27.6933164
  26.0910000 -13.2270000 -26.8690000  25.1900148 -13.2180251 -26.2556125
  26.8942689 -12.7127522 -26.3413558  25.8130000 -12.5140000 -28.1930000
  25.2057933 -13.1688616 -28.8179457  25.0790000 -11.2000000 -27.9730000
  25.6858324 -10.5443894 -27.3484778  24.8973169 -10.7193449 -28.9342818
  24.1271281 -11.3933329 -27.4783660  27.1190000 -12.3000000 -28.9470000
  27.5853199 -13.2644845 -29.1480345  26.9158650 -11.7917100 -29.8895915
  27.7917550 -11.6904438 -28.3437248  26.9660000 -15.2580000 -25.6550000
  28.1800000 -15.3980000 -25.4910000  26.0780000 -15.5750000 -24.7080000
  25.0947710 -15.3836376 -24.8373848  26.5070000 -16.1720000 -23.4460000
  27.1132049 -15.4585602 -22.8877721  25.2950000 -16.5560000 -22.5940000
  24.6148894 -17.1322828 -23.2212534  25.6626847 -17.1856053 -21.7837499
  24.5510000 -15.3510000 -22.0070000  25.0780000 -14.2090000 -22.0380000
  23.4120000 -15.5660000 -21.5180000  27.3670000 -17.4050000 -23.6890000
  28.3820000 -17.6060000 -23.0140000  26.9700000 -18.2540000 -24.6460000
  26.1002125 -18.1141006 -25.1399607  27.7580000 -19.4440000 -24.9550000
  27.9902415 -19.9836642 -24.0368902  26.9750000 -20.3730000 -25.8830000
  26.0782878 -20.5925574 -25.3035167  26.6963818 -19.8530929 -26.7996071
  27.6890000 -21.6840000 -26.2360000  28.7344950 -21.4561763 -26.4436954
  27.6060000 -22.7090000 -25.1020000  26.5607486 -22.9376885 -24.8940338
  28.1251534 -23.6208796 -25.3970527  28.0729153 -22.2992976 -24.2063246
  27.1670000 -22.2800000 -27.5450000  27.3300505 -21.5720961 -28.3576414
  27.6978893 -23.2074399 -27.7597395  26.1006711 -22.4856432 -27.4514453
  29.0950000 -19.0650000 -25.5800000  30.1530000 -19.5230000 -25.1310000
  29.0640000 -18.2110000 -26.6110000  28.1833396 -17.8609354 -26.9602726
  30.2900000 -17.7850000 -27.2760000  30.7658682 -18.6364194 -27.7625529
  29.9730000 -16.7350000 -28.3330000  29.3795092 -15.9239239 -27.9110717
  30.8873681 -16.3286222 -28.7653055  29.0440000 -17.3700000 -29.6720000
  28.9699278 -16.2252794 -30.3450723  31.3030000 -17.2080000 -26.3040000
  32.5080000 -17.4130000 -26.4700000  30.8470000 -16.4380000 -25.3130000
  29.8633143 -16.2621394 -25.1662522  31.8050000 -15.7320000 -24.4790000
  32.5779448 -15.2231120 -25.0549241  31.0770000 -14.6910000 -23.6030000
  30.2786716 -14.2365463 -24.1897222  30.4920000 -15.3350000 -22.3740000
  31.2898377 -15.7893027 -21.7864925  29.9845591 -14.5796610 -21.7739440
  29.7775345 -16.1028768 -22.6706580  32.0140000 -13.5480000 -23.2240000
  32.3718777 -13.0558164 -24.1283124  31.4776739 -12.8273172 -22.6066911
  32.8627788 -13.9431686 -22.6658628  32.6370000 -16.7070000 -23.6520000
  33.7290000 -16.3490000 -23.1940000  32.1690000 -17.9460000 -23.4770000
  31.2713189 -18.2154118 -23.8534110  32.9110000 -18.9260000 -22.6850000
  33.2762084 -18.4624796 -21.7685553  32.0050000 -20.1020000 -22.3110000
  31.7275588 -20.5241239 -23.2768867  32.5841954 -20.8339327 -21.7480548
  30.7360000 -19.7420000 -21.5270000  30.1181339 -19.1034216 -22.1583161
  29.9380000 -20.9780000 -21.1180000  30.5550969 -21.6168819 -20.4862403
  29.0495788 -20.6712622 -20.5659851  29.6388941 -21.5293811 -22.0094118
  31.0710000 -18.9020000 -20.2940000  31.5621798 -17.9798065 -20.6044851
  30.1532719 -18.6613625 -19.7573717  31.7366908 -19.4651912 -19.6399584
  34.1540000 -19.4490000 -23.3990000  34.9990000 -20.0870000 -22.7560000
  34.2840000 -19.2000000 -24.6970000  33.5176774 -18.7476721 -25.1747536
  35.4570000 -19.5770000 -25.4750000  36.0436494 -20.3158634 -24.9290856
  35.0300000 -20.1840000 -26.8150000  34.3466187 -21.0038731 -26.5938727
  34.5030828 -19.4146942 -27.3794704  36.2050000 -20.7090000 -27.6430000
  37.3340000 -20.1680000 -27.5520000  35.9770000 -21.6800000 -28.4050000
  36.3110000 -18.3240000 -25.6800000  35.8850000 -17.3770000 -26.3460000
  37.5240000 -18.3250000 -25.1230000  37.8463751 -19.1270308 -24.6005824
  38.3720000 -17.1460000 -25.1680000  37.8998352 -16.2562691 -24.7514205
  39.6690000 -17.4290000 -24.3830000  39.4154365 -17.8908672 -23.4288074
  40.5620000 -18.3570000 -25.1690000  40.8163839 -17.8955881 -26.1231954
  41.4742662 -18.5490681 -24.6042163  40.0414020 -19.2977204 -25.3482333
  40.3810000 -16.1270000 -24.0440000  39.7273946 -15.5028537 -23.4346205
  41.2941082 -16.3451528 -23.4901567  40.6320642 -15.5993374 -24.9641303
  38.6630000 -16.6960000 -26.5990000  39.0520000 -15.5450000 -26.8220000
  38.4680000 -17.5690000 -27.5910000  38.1991103 -18.5270489 -27.4179684
  38.7210000 -17.1590000 -28.9700000  39.7356744 -16.7727585 -29.0667087
  38.5640000 -18.3590000 -29.9040000  37.6674916 -18.9017238 -29.6042955
  38.4366308 -17.9798686 -30.9179706  39.7610000 -19.2950000 -29.8600000
  40.9220000 -18.8010000 -29.8060000  39.5280000 -20.5290000 -29.8800000
  37.8120000 -16.0170000 -29.4090000  38.1580000 -15.2760000 -30.3380000
  36.6670000 -15.8430000 -28.7480000  36.3724259 -16.4810166 -28.0225620
  35.7710000 -14.7560000 -29.1170000  35.4455527 -14.8783494 -30.1500604
  34.5320000 -14.7540000 -28.2090000  33.7608494 -14.1239041 -28.6521761
  34.1557859 -15.7721799 -28.1096391  34.7760000 -14.1340000 -26.5030000
  33.5168852 -14.3066404 -26.1109240  36.4770000 -13.4040000 -29.0650000
  36.0870000 -12.4710000 -29.7850000  37.5220000 -13.2740000 -28.2420000
  37.8487065 -14.0283799 -27.6552521  38.1620000 -11.9720000 -28.1130000
  37.4181476 -11.2064657 -27.8922283  39.1730000 -12.0100000 -26.9760000
  39.8510547 -12.8386017 -27.1803531  39.7423653 -11.0827850 -26.9112270
  38.4500000 -12.2580000 -25.6500000  37.9164122 -13.2042539 -25.7393782
  39.3910000 -12.3160000 -24.4480000  39.9246372 -11.3698633 -24.3576920
  38.8126825 -12.4943336 -23.5414424  40.1080629 -13.1252465 -24.5859899
  37.3970000 -11.1680000 -25.4300000  36.6750519 -11.1894669 -26.2463514
  36.8821838 -11.3447408 -24.4856334  37.8832271 -10.1928830 -25.4012085
  38.8120000 -11.5120000 -29.4070000  39.1860000 -10.3410000 -29.5160000
  38.9390000 -12.3990000 -30.3890000  38.7462917 -13.3771024 -30.2268933
  39.3940000 -11.9960000 -31.7090000  40.4085826 -11.6004935 -31.6610829
  39.3890000 -13.2110000 -32.6220000  39.7120122 -14.0589035 -32.0179951
  38.3566670 -13.3624957 -32.9373373  40.2680000 -13.0950000 -33.8300000
  39.8775348 -12.3208965 -34.4906069  41.2650078 -12.8136675 -33.4909918
  40.3420000 -14.4040000 -34.5780000  40.0280000 -15.4520000 -33.9660000
  40.6920000 -14.3850000 -35.7740000  38.5200000 -10.8990000 -32.2970000
  39.0090000 -10.0390000 -33.0340000  37.2460000 -10.9000000 -31.9770000
  36.8858220 -11.5006395 -31.2492615  36.3150000 -10.0580000 -32.6940000
  36.7982492  -9.6285386 -33.5715718  35.1130000 -10.8830000 -33.1530000
  34.4618697 -11.1684732 -32.3267836  34.5455579 -10.2978178 -33.8766513
  35.5100000 -12.1530000 -33.8450000  35.9130000 -12.1370000 -35.1710000
  35.9103418 -11.1922594 -35.7146525  36.3130000 -13.2930000 -35.8020000
  36.6290130 -13.2679834 -36.8448857  36.3130000 -14.4840000 -35.1110000
  36.6254289 -15.4015158 -35.6096510  35.9200000 -14.5170000 -33.7950000
  35.9156256 -15.4610398 -33.2501424  35.5300000 -13.3520000 -33.1620000
  35.2342558 -13.3743765 -32.1131270  35.8440000  -8.9050000 -31.8320000
  35.5590000  -9.0940000 -30.6420000  35.7850000  -7.7020000 -32.3910000
  36.2160000  -7.3120000 -33.7410000  35.5271520  -7.7232549 -34.4788740
  37.2196827  -7.6929186 -33.9297355  36.1740000  -5.8150000 -33.6860000
  35.9266377  -5.4226992 -34.6724132  37.1486758  -5.4359218 -33.3787408
  35.1290000  -5.4670000 -32.6850000  34.1654193  -5.5248381 -33.1912272
  35.2289738  -4.4933364 -32.2053291  35.2340000  -6.5780000 -31.6380000
  35.9090474  -6.3231627 -30.8210133  33.8760000  -6.9590000 -31.0720000
  33.1070000  -7.6990000 -31.6960000  33.6020000  -6.4710000 -29.8630000
  34.2833495  -5.9271692 -29.3529899  32.3360000  -6.7710000 -29.2160000
  32.2665498  -7.8346551 -28.9881543  32.2440000  -5.9870000 -27.9130000
  32.5740431  -4.9723824 -28.1359842  31.2067671  -5.9658859 -27.5786317
  33.1100000  -6.5690000 -26.8260000  33.8110000  -7.7500000 -27.0280000
  33.7349449  -8.2489523 -27.9941065  34.5980000  -8.2960000 -26.0260000
  35.1499876  -9.2189968 -26.2034497  34.6800000  -7.6660000 -24.7960000
  35.4680000  -8.2120000 -23.8000000  35.9079218  -9.0211023 -24.0709647
  33.9770000  -6.4950000 -24.5690000  34.0306857  -5.9970609 -23.6008704
  33.2020000  -5.9570000 -25.5820000  32.6474681  -5.0340645 -25.4123398
  31.1560000  -6.4640000 -30.1270000  30.2410000  -7.2810000 -30.2640000
  31.1590000  -5.2890000 -30.7630000  31.8908858  -4.6076796 -30.6207146
  30.0860000  -4.9650000 -31.6900000  29.1538438  -4.8954916 -31.1293285
  30.3054927  -4.0014471 -32.1498783  29.9300000  -6.0060000 -32.7780000
  28.8190000  -6.2600000 -33.2490000  31.0360000  -6.6380000 -33.1760000
  31.9372825  -6.3664808 -32.8098492  30.9900000  -7.6740000 -34.2050000
  30.3112663  -7.4085248 -35.0155200  32.3970000  -7.9250000 -34.7760000
  33.0868127  -8.1298797 -33.9572917  32.3660000  -9.1150000 -35.7220000
  31.6767021  -8.9106618 -36.5412771  33.3649058  -9.2873783 -36.1227163
  32.0341364 -10.0012381 -35.1811231  32.9290000  -6.6690000 -35.4760000
  32.6727543  -5.8121616 -34.8528894  34.0133216  -6.7615362 -35.5375077
  32.3700000  -6.4740000 -36.8410000  31.2856830  -6.3809109 -36.7802480
  32.7879639  -5.5677454 -37.2793013  32.6262486  -7.3302872 -37.4648659
  30.3780000  -8.9600000 -33.6590000  29.5720000  -9.6150000 -34.3350000
  30.7670000  -9.3630000 -32.4460000  31.5243595  -8.9063880 -31.9581360
  30.1380000 -10.5240000 -31.8180000  30.3349924 -11.4174913 -32.4104242
  30.6950000 -10.7360000 -30.4190000  30.7070113  -9.7619220 -29.9299939
  30.0718961 -11.4222291 -29.8454748  32.1070000 -11.2800000 -30.4950000
  32.6514052 -10.7541949 -31.2793805  32.8200000 -11.0800000 -29.1590000
  32.2763978 -11.6059365 -28.3741521  33.8339224 -11.4745899 -29.2250372
  32.8591875 -10.0165531 -28.9231071  32.0740000 -12.7430000 -30.8800000
  31.5935264 -12.8526410 -31.8522260  33.0922328 -13.1283516 -30.9329849
  31.5124352 -13.3033669 -30.1325156  28.6260000 -10.3710000 -31.7640000
  27.8880000 -11.2630000 -32.1930000  28.1400000  -9.2420000 -31.2420000
  28.7437570  -8.5323149 -30.8522260  26.6950000  -9.0570000 -31.1350000
  26.2881654  -9.9011835 -30.5782784  26.3860000  -7.7730000 -30.3690000
  26.7792581  -6.9178207 -30.9186513  25.3069930  -7.6670527 -30.2566644
  26.8508263  -7.8161153 -29.3840245  26.0230000  -9.0680000 -32.5120000
  24.9770000  -9.7070000 -32.6960000  26.6110000  -8.3910000 -33.5030000
  27.4404320  -7.8326857 -33.3600767  26.0000000  -8.3960000 -34.8290000
  24.9681293  -8.0602094 -34.7261084  26.7310000  -7.4420000 -35.7620000
  27.7634028  -7.7703274 -35.8821900  26.2373896  -7.4338836 -36.7337938
  26.7166402  -6.4373739 -35.3393660  25.9690000  -9.7940000 -35.4270000
  25.0010000 -10.1620000 -36.0950000  27.0200000 -10.5860000 -35.2040000
  27.8169369 -10.2555548 -34.6788364  27.0700000 -11.9370000 -35.7640000
  26.8021395 -11.9139380 -36.8203229  28.4780000 -12.5040000 -35.6310000
  28.6861854 -12.7220362 -34.5835181  28.5590649 -13.4205019 -36.2154252
  29.4110000 -11.5570000 -36.1090000  30.2988750 -11.9125128 -36.0260030
  26.0670000 -12.8610000 -35.0890000  25.4810000 -13.7280000 -35.7390000
  25.8640000 -12.7020000 -33.7850000  26.4410270 -12.0874339 -33.2287197
  24.8250000 -13.4690000 -33.1130000  24.9524142 -14.5265436 -33.3442281
  24.9400000 -13.2830000 -31.6050000  24.8055094 -12.2301552 -31.3569473
  24.1723049 -13.8742817 -31.1058704  25.9245655 -13.6113215 -31.2719309
  23.4370000 -13.0610000 -33.5980000  22.5450000 -13.9110000 -33.7380000
  23.2270000 -11.7650000 -33.8560000  23.9304654 -11.0671676 -33.6603840
  21.9320000 -11.3190000 -34.3770000  21.1290165 -11.7032535 -33.7479802
  21.8560000  -9.7950000 -34.3880000  22.0260043  -9.4259010 -33.3765833
  22.6281068  -9.4048893 -35.0511476  20.4910000  -9.3330000 -34.8730000
  19.7981196 -10.1744359 -34.8712342  19.9800000  -8.2660000 -33.9620000
  20.6721674  -7.4239783 -33.9635957  19.0012457  -7.9317541 -34.3061228
  19.8930297  -8.6622553 -32.9503092  20.6240000  -8.8000000 -36.2510000
  21.0023886  -9.5824326 -36.9088152  19.6496180  -8.4660113 -36.6075565
  21.3178570  -7.9593685 -36.2505779  21.6730000 -11.8650000 -35.7770000
  20.5490000 -12.2650000 -36.1000000  22.7010000 -11.8840000 -36.6190000
  23.5840684 -11.4607361 -36.3717407  22.5650000 -12.4720000 -37.9410000
  21.8333174 -11.9176461 -38.5287342  23.9050000 -12.4190000 -38.6580000
  24.0595225 -11.3961686 -39.0015664  24.6753020 -12.6780194 -37.9316091
  23.9850000 -13.3580000 -39.8290000  23.4130000 -13.0220000 -41.0430000
  22.8994051 -12.0649449 -41.1344615  23.4840000 -13.8760000 -42.1300000
  23.0319846 -13.5898525 -43.0796860  24.1310000 -15.0870000 -42.0120000
  24.1970000 -15.9500000 -43.0940000  23.7593710 -15.6054141 -43.8758830
  24.7120000 -15.4420000 -40.8060000  25.2278693 -16.3969921 -40.7061530
  24.6360000 -14.5780000 -39.7230000  25.0916748 -14.8544931 -38.7722045
  22.0640000 -13.9070000 -37.8660000  21.2020000 -14.3180000 -38.6550000
  22.6100000 -14.6960000 -36.9380000  23.3080243 -14.3469178 -36.2969049
  22.2460000 -16.1060000 -36.8630000  22.3715874 -16.5738713 -37.8394340
  23.1310000 -16.8260000 -35.8630000  23.3862940 -16.1410641 -35.0544290
  22.6368099 -17.7057631 -35.4508192  24.4190000 -17.2950000 -36.4470000
  24.5270000 -18.4700000 -37.1560000  25.7760000 -18.6280000 -37.5530000
  26.0692795 -19.5093068 -38.1234247  26.4790000 -17.5910000 -37.1400000
  27.4651026 -17.4398770 -37.2976811  25.6510000 -16.7370000 -36.4530000
  26.0468036 -15.8095426 -36.0391600  20.7950000 -16.3070000 -36.4860000
  20.2380000 -17.3790000 -36.7480000  20.1720000 -15.3110000 -35.8720000
  20.6838441 -14.5025608 -35.5486720  18.7660000 -15.4030000 -35.5550000
  18.4185418 -16.4293065 -35.6736040  18.5410000 -14.9780000 -34.1150000
  19.2221427 -14.1524555 -33.9085536  17.5200332 -14.6715957 -33.8873090
  18.8820000 -16.0570000 -33.1610000  20.1970000 -16.2860000 -32.7950000
  20.9818817 -15.6421467 -33.1918798  20.5210000 -17.3240000 -31.9310000
  21.5574999 -17.4809561 -31.6324477  19.5340000 -18.1540000 -31.4520000
  19.7840240 -18.9716307 -30.7759319  18.2220000 -17.9480000 -31.8310000
  17.4378294 -18.6033677 -31.4519620  17.9020000 -16.9110000 -32.6910000
  16.8686265 -16.7616979 -33.0039666  17.9080000 -14.6110000 -36.5130000
  16.7080000 -14.4550000 -36.2670000  18.4880000 -14.1310000 -37.6140000
  19.4843288 -14.2280424 -37.7482051  17.7250000 -13.4010000 -38.6150000
  16.7249148 -13.8272348 -38.6940733  17.5980000 -11.9190000 -38.2360000
  17.1948779 -11.3914247 -39.1004398  16.8928340 -11.8502057 -37.4076834
  18.8330000 -11.3300000 -37.8560000  18.6917608 -10.4074490 -37.6311647
  18.3520000 -13.5380000 -39.9930000  18.2500000 -14.5990000 -40.6220000
  18.9930000 -12.4650000 -40.4580000  19.0994702 -11.6698703 -39.8443778
  19.5260000 -12.3690000 -41.8150000  20.0010938 -13.3123815 -42.0841027
  18.4200000 -12.0720000 -42.8290000  18.8220516 -12.1439095 -43.8395853
  17.6108135 -12.7922508 -42.7083513  17.9240000 -10.7650000 -42.6110000
  17.2295415 -10.5761859 -43.2463554  20.5750000 -11.2650000 -41.8610000
  20.6600000 -10.4310000 -40.9570000  21.3660000 -11.2560000 -42.9390000
  21.3364946 -11.9833709 -43.6391145  22.3560000 -10.1960000 -43.0850000
  22.9173955 -10.0900593 -42.1567162  23.3350000 -10.5150000 -44.2140000
  24.3110019 -10.1059032 -43.9529266  23.4100923 -11.5979339 -44.3125665
  22.9040000  -9.9590000 -45.4410000  23.5366973 -10.1749689 -46.1299495
  21.6850000  -8.8570000 -43.3330000  22.1670000  -7.8220000 -42.8590000
  20.5640000  -8.8510000 -44.0510000  20.1943925  -9.6979724 -44.4585873
  19.8870000  -7.5920000 -44.3400000  20.5680678  -6.9059749 -44.8436024
  18.6880000  -7.8480000 -45.2530000  18.0206644  -8.5215272 -44.7152980
  18.1932288  -6.8879466 -45.3999662  19.0410000  -8.4620000 -46.6290000
  18.1581245  -8.3644842 -47.2607612  19.8521590  -7.8639604 -47.0442938
  19.4710000  -9.9420000 -46.5720000  19.9540000 -10.4760000 -47.6130000
  19.3290000 -10.5670000 -45.4890000  19.4730000  -6.8820000 -43.0540000
  19.6260000  -5.6600000 -42.9330000  18.9720000  -7.6300000 -42.0630000
  18.8022977  -8.6198967 -42.1697945  18.5970000  -6.9940000 -40.7990000
  18.0608197  -6.0668719 -41.0015918  17.6960000  -7.9080000 -39.9750000
  16.7422549  -7.9329097 -40.5021139  18.1146097  -8.9136031 -39.9346483
  17.4790000  -7.3900000 -38.5550000  18.4502244  -7.2232494 -38.0891478
  16.6980000  -6.0950000 -38.5690000  15.7264050  -6.2610732 -39.0343188
  16.5555543  -5.7449379 -37.5466173  17.2483454  -5.3443078 -39.1361698
  16.7750000  -8.4320000 -37.7340000  17.3809345  -9.3373391 -37.6978889
  16.6231102  -8.0564754 -36.7220652  15.8092706  -8.6595379 -38.1853227
  19.8230000  -6.6060000 -39.9820000  19.8520000  -5.5280000 -39.3730000
  20.8320000  -7.4810000 -39.9340000  20.7466926  -8.3999543 -40.3442987
  22.0620000  -7.1520000 -39.2270000  21.8618068  -7.0272414 -38.1628303
  23.0780000  -8.2810000 -39.4040000  22.6574092  -9.1582203 -38.9123832
  23.1534437  -8.4667910 -40.4753963  24.4670000  -7.9980000 -38.8380000
  24.3153790  -7.4993945 -37.8806576  24.9368526  -8.9673896 -38.6717944
  25.5450000  -6.9860000 -39.8690000  25.6870000  -8.0430000 -41.3110000
  24.6981998  -8.2109672 -41.7378024  26.3254928  -7.5629148 -42.0525833
  26.1237300  -8.9984127 -41.0202171  22.6210000  -5.8260000 -39.7210000
  22.8970000  -4.9190000 -38.9250000  22.7740000  -5.6850000 -41.0420000
  22.5391840  -6.4235028 -41.6897456  23.3600000  -4.4580000 -41.5740000
  24.3283335  -4.2781374 -41.1070109  23.5600000  -4.5730000 -43.0830000
  24.2620500  -5.3882654 -43.2578349  22.5945943  -4.8251714 -43.5217499
  24.0940000  -3.2940000 -43.7280000  23.2449910  -2.6472524 -43.9493643
  24.7657048  -2.7866788 -43.0355118  24.8470000  -3.5690000 -45.0230000
  24.6040000  -4.5790000 -45.7020000  25.7840000  -2.6790000 -45.3630000
  26.3157623  -2.8094284 -46.2117159  25.9561598  -1.8799563 -44.7697113
  22.5020000  -3.2400000 -41.2440000  23.0270000  -2.1580000 -40.9520000
  21.1770000  -3.3930000 -41.2940000  20.7622901  -4.2671075 -41.5839157
  20.2900000  -2.2720000 -40.9920000  20.5112361  -1.4310756 -41.6492670
  18.8330000  -2.6900000 -41.2060000  18.7568643  -3.0254492 -42.2403000
  18.6519475  -3.5315813 -40.5373738  17.8040000  -1.6120000 -40.9490000
  18.1149595  -1.0287460 -40.0822706  17.7495532  -0.9626060 -41.8227419
  16.4310000  -2.2240000 -40.6840000  16.0312648  -2.5953133 -41.6276298
  16.5524266  -3.0551170 -39.9893062  15.4640000  -1.2000000 -40.0890000
  16.0318710  -0.5457024 -39.4275488  15.0477118  -0.6144431 -40.9087112
  14.3530000  -1.8420000 -39.3210000  14.7385077  -2.3842911 -38.5611290
  13.7437631  -1.1272856 -38.9493635  13.8264125  -2.4480005 -39.9338361
  20.5030000  -1.7650000 -39.5670000  20.5830000  -0.5550000 -39.3340000
  20.6250000  -2.6750000 -38.6000000  20.6116680  -3.6623670 -38.8121980
  20.7040000  -2.2690000 -37.2000000  20.2835555  -1.2782496 -37.0275495
  19.9700000  -3.2780000 -36.3000000  19.9811357  -2.9204178 -35.2703835
  18.5300000  -3.4280000 -36.7690000  18.5180470  -3.7860149 -37.7984578
  18.0118800  -4.1431753 -36.1301131  18.0272352  -2.4623946 -36.7148198
  20.7130000  -4.6350000 -36.2900000  21.7249056  -4.4929829 -35.9105527
  20.1801304  -5.3368645 -35.6484893  20.7581795  -5.0325630 -37.3039050
  22.1250000  -2.0800000 -36.6680000  22.2960000  -1.4380000 -35.6200000
  23.1480000  -2.6200000 -37.3400000  22.9812694  -3.1214914 -38.2007013
  24.5180000  -2.5390000 -36.8400000  24.5216015  -2.0551346 -35.8632910
  25.1360000  -3.9380000 -36.6970000  25.9205012  -3.9116321 -35.9407184
  24.3640400  -4.6455714 -36.3944763  25.6900000  -4.3450000 -37.9390000
  26.0752944  -5.2193911 -37.8463266  25.4400000  -1.7110000 -37.7180000
  26.5460000  -1.3700000 -37.2750000  25.0360000  -1.4060000 -38.9500000
  24.1062930  -1.6697890 -39.2435296  25.8800000  -0.7070000 -39.8930000
  25.2306388  -0.3315428 -40.6838610  26.3252978   0.1329544 -39.3598154
  26.9780000  -1.5330000 -40.5110000  27.5800000  -1.0850000 -41.4940000
  27.2670000  -2.7170000 -39.9770000  26.7407919  -3.0666338 -39.1889895
  28.3600000  -3.5240000 -40.4870000  29.2261809  -2.8884677 -40.6711970
  28.7550000  -4.6100000 -39.4880000  27.8234323  -5.1040723 -39.2120047
  29.4008361  -5.3176659 -40.0078121  29.4500000  -4.1160000 -38.2430000
  30.7540000  -3.6280000 -38.2880000  31.2794522  -3.5957945 -39.2424434
  31.3880000  -3.1830000 -37.1270000  32.4049150  -2.7924057 -37.1647066
  30.7140000  -3.2460000 -35.9170000  31.3050000  -2.8200000 -34.7380000
  32.1983852  -2.4917967 -34.8634796  29.4280000  -3.7340000 -35.8640000
  28.9017621  -3.7781443 -34.9104669  28.8080000  -4.1650000 -37.0110000
  27.7913776  -4.5557130 -36.9671559  27.9630000  -4.1670000 -41.8000000
  26.8160000  -4.5690000 -41.9870000  28.9130000  -4.2650000 -42.7140000
  29.8087055  -3.8090679 -42.6143157  28.6540000  -5.0140000 -43.9290000
  27.6014540  -4.9223040 -44.1970262  29.4990000  -4.4880000 -45.0850000
  30.5157009  -4.8556436 -44.9462318  29.0882848  -4.8966247 -46.0082762
  29.5160000  -2.9810000 -45.1660000  28.4977254  -2.6170652 -45.0289994
  30.1560631  -2.5708262 -44.3848606  30.0190000  -2.5070000 -46.4950000
  29.3130000  -2.6060000 -47.5050000  31.2570000  -2.0040000 -46.5190000
  31.6461566  -1.6696193 -47.3889702  31.7977472  -1.9605581 -45.6670571
  28.9450000  -6.4820000 -43.6830000  29.5780000  -6.8550000 -42.6950000
  28.4660000  -7.3230000 -44.5930000  27.8921445  -7.0065046 -45.3615179
  28.7090000  -8.7510000 -44.4560000  28.2749945  -9.1193829 -43.5264665
  28.0670000  -9.4950000 -45.6220000  26.9792747  -9.4616976 -45.5600008
  28.3907281  -9.0472187 -46.5615701  28.4420000 -10.9170000 -45.6820000
  29.3110000 -11.4980000 -46.5580000  29.7737311 -10.8468749 -47.2996305
  29.4150000 -12.8480000 -46.2960000  29.9958546 -13.5038719 -46.7985332
  28.6080000 -13.1530000 -45.2320000  28.3870000 -14.3680000 -44.6000000
  28.9074857 -15.2501241 -44.9728945  27.5240000 -14.3810000 -43.5420000
  27.3264064 -15.3191981 -43.0235012  26.8850000 -13.2180000 -43.1050000
  26.1986859 -13.2403283 -42.2584931  27.1040000 -12.0010000 -43.7340000
  26.5831955 -11.1206313 -43.3574176  27.9820000 -11.9590000 -44.8180000
  30.2000000  -9.0510000 -44.3740000  30.6330000  -9.8810000 -43.5620000
  31.0060000  -8.3760000 -45.1960000  30.6380896  -7.7421338 -45.8909496
  32.4480000  -8.6050000 -45.1620000  32.6678426  -9.6510656 -45.3753429
  33.1330000  -7.7370000 -46.2170000  34.2090694  -7.9103313 -46.2284030
  32.7239169  -7.9298402 -47.2087478  32.9130000  -5.9640000 -45.9190000
  33.6069648  -5.5578059 -46.9783949  33.0410000  -8.3470000 -43.7730000
  34.0010000  -9.0210000 -43.3740000  32.4830000  -7.3870000 -43.0170000
  31.7542078  -6.7968811 -43.3921279  32.9370000  -7.1430000 -41.6480000
  34.0210251  -7.0311067 -41.6263505  32.3050000  -5.8640000 -41.1150000
  31.2258275  -6.0103894 -41.0696569  32.6899003  -5.6888070 -40.1103810
  32.6130000  -4.6770000 -41.9830000  33.6880000  -4.7120000 -42.6260000
  31.7950000  -3.7230000 -42.0250000  32.6040000  -8.2890000 -40.7060000
  33.2950000  -8.4750000 -39.7030000  31.5770000  -9.0580000 -41.0290000
  31.1782580  -8.9604389 -41.9518142  30.9530000  -9.9880000 -40.1040000
  31.2976299  -9.8919023 -39.0743910  29.4160000  -9.8030000 -40.1530000
  29.1565828  -9.5555077 -41.1823448  28.6270000 -11.0210000 -39.7120000
  28.8855557 -11.2688415 -38.6825224  27.5602727 -10.8064726 -39.7765883
  28.8673562 -11.8642390 -40.3595154  29.0230000  -8.5730000 -39.3510000
  29.2113364  -7.6905984 -39.9625535  27.9586868  -8.6371562 -39.1246795
  29.8000000  -8.4700000 -38.0730000  30.8644468  -8.4053340 -38.2985465
  29.4894778  -7.5777826 -37.5292875  29.6117988  -9.3518935 -37.4606733
  31.3310000 -11.4270000 -40.4020000  31.1630000 -12.2930000 -39.5290000
  31.8790000 -11.7000000 -41.5810000  32.2445088 -10.9570412 -42.1593727
  31.8950000 -13.0580000 -42.1090000  30.9028095 -13.5049056 -42.0462901
  32.3180000 -13.0150000 -43.5720000  31.7094301 -12.2553688 -44.0626142
  33.3650637 -12.7131491 -43.5973731  32.1570000 -14.3280000 -44.2910000
  32.5669715 -15.1083123 -43.6498005  31.0958125 -14.5143713 -44.4560637
  32.8780000 -14.3340000 -45.6110000  33.4810000 -15.3800000 -45.9290000
  32.8520000 -13.2930000 -46.3130000  32.7980000 -13.9940000 -41.3020000
  32.3890000 -15.1120000 -40.9670000  34.0470000 -13.5850000 -41.0170000
  34.4090093 -12.7048303 -41.3551566  34.9350000 -14.4450000 -40.2290000
  35.1027158 -15.3780969 -40.7668669  36.2910000 -13.7740000 -39.9770000
  36.1333489 -12.8443081 -39.4302657  36.8982655 -14.4502400 -39.3753123
  37.0380000 -13.4620000 -41.2570000  36.8470000 -14.1270000 -42.2780000
  37.8880000 -12.4370000 -41.2160000  38.4119804 -12.1860830 -42.0421870
  38.0045332 -11.9155307 -40.3589174  34.2950000 -14.7950000 -38.9000000
  34.3430000 -15.9490000 -38.4550000  33.6890000 -13.8000000 -38.2520000
  33.7242594 -12.8531975 -38.6018874  33.0190000 -14.0420000 -36.9840000
  33.7067462 -14.5071015 -36.2777529  32.5380000 -12.7210000 -36.3970000
  33.3368106 -11.9795351 -36.3818115  31.6873009 -12.3264843 -36.9526694
  31.9920000 -12.8910000 -34.7160000  31.6644968 -11.6131729 -34.5463006
  31.8590000 -15.0200000 -37.1440000  31.7110000 -15.9530000 -36.3460000
  31.0320000 -14.8390000 -38.1760000  31.1350004 -14.0560215 -38.8056308
  29.8890000 -15.7300000 -38.3600000  29.2530601 -15.7471293 -37.4749089
  29.0450000 -15.2750000 -39.5630000  29.7043294 -15.0653204 -40.4052698
  28.0660000 -16.3600000 -39.9480000  27.4059859 -16.5699190 -39.1063253
  27.4728182 -16.0290712 -40.8004799  28.6120832 -17.2646880 -40.2152723
  28.3040000 -13.9930000 -39.2290000  29.0223599 -13.2114090 -38.9816612
  27.7103634 -13.6814027 -40.0884198  27.6464265 -14.1643047 -38.3767367
  30.3430000 -17.1810000 -38.5080000  29.7350000 -18.0970000 -37.9350000
  31.4120000 -17.4210000 -39.2840000  31.8773640 -16.6711082 -39.7751190
  31.8950000 -18.7910000 -39.4880000  31.0656768 -19.4307073 -39.7898225
  32.9690000 -18.8330000 -40.5810000  33.5191132 -17.8943359 -40.5147857
  33.6334895 -19.6611274 -40.3345070  32.4390000 -19.0120000 -41.9990000
  31.7479935 -19.8549111 -42.0095721  31.9094605 -18.1050631 -42.2908141
  33.5770000 -19.2750000 -42.9820000  33.2782212 -18.8885395 -43.9564118
  34.4573477 -18.7357902 -42.6322284  33.9050000 -20.7580000 -43.1030000
  34.9850544 -20.8744905 -43.0134840  33.4143702 -21.2815296 -42.2824525
  33.4440000 -21.3390000 -44.4170000  33.8988395 -20.8543103 -45.1774582
  33.6814304 -22.3200320 -44.4530972  32.4431652 -21.2315428 -44.4999561
  32.4450000 -19.3890000 -38.1970000  32.1630000 -20.5500000 -37.8760000
  33.2530000 -18.6180000 -37.4580000  33.6092486 -17.7477454 -37.8265693
  33.6950000 -19.0410000 -36.1300000  34.2865790 -19.9533938 -36.2053067
  34.5630000 -17.9440000 -35.4930000  35.5016916 -17.8780954 -36.0431036
  34.0832868 -16.9653954 -35.4754407  34.9200000 -18.2730000 -34.0720000
  35.9380000 -19.0740000 -33.6550000  36.5797734 -19.4942801 -34.4293328
  35.9300000 -19.1800000 -32.2830000  36.5935153 -19.7049140 -31.7313550
  34.8880000 -18.4430000 -31.7850000  34.4870000 -18.2330000 -30.4660000
  35.0540664 -18.7145666 -29.6693646  33.4020000 -17.4320000 -30.2540000
  33.0611341 -17.2483041 -29.2350956  32.7120000 -16.8370000 -31.3190000
  31.8448349 -16.2011639 -31.1405720  33.1130000 -17.0400000 -32.6350000
  32.5511526 -16.5482498 -33.4291096  34.2250000 -17.8570000 -32.8800000
  32.5060000 -19.3820000 -35.2230000  32.5670000 -20.3320000 -34.4290000
  31.4040000 -18.6280000 -35.3450000  31.3749183 -17.9178443 -36.0625879
  30.2710000 -18.7350000 -34.4310000  30.6097808 -18.9572105 -33.4190962
  29.5310000 -17.3940000 -34.4160000  30.2890197 -16.6350678 -34.2222803
  29.1321455 -17.2600473 -35.4215206  28.4100000 -17.2570000 -33.4060000
  27.5910359 -17.9152829 -33.6959349  28.7813894 -17.5507072 -32.4242118
  27.8060000 -15.5570000 -33.3280000  29.2520000 -14.8040000 -32.5960000
  30.1107627 -14.9533562 -33.2504603  29.0783875 -13.7361358 -32.4632392
  29.4500554 -15.2625830 -31.6271982  29.3240000 -19.8820000 -34.7800000
  28.5380000 -20.3110000 -33.9220000  29.4220000 -20.4150000 -35.9950000
  30.1340388 -20.0432144 -36.6072709  28.5240000 -21.4460000 -36.5200000
  27.5181583 -21.0600963 -36.6857104  29.0600000 -22.0040000 -37.8460000
  30.1494203 -22.0239940 -37.8166244  28.5340000 -23.4120000 -38.0570000
  27.4445812 -23.3927472 -38.0869509  28.9159472 -23.8057574 -38.9988980
  28.8631845 -24.0500958 -37.2368946  28.6640000 -21.0990000 -38.9940000
  29.0789409 -20.1040431 -38.8327953  29.0503825 -21.5062325 -39.9283286
  27.5772661 -21.0344624 -39.0482704  28.2800000 -22.5950000 -35.5470000
  27.1170000 -22.8770000 -35.2260000  29.3200000 -23.3040000 -35.0820000
  30.7540000 -23.0230000 -35.2460000  31.0218982 -22.1387631 -34.6676783
  30.9743333 -22.8482350 -36.2990952  31.4040000 -24.2710000 -34.7250000
  32.3593910 -24.0068649 -34.2716130  31.5739559 -24.9532113 -35.5579490
  30.4890000 -24.8630000 -33.7410000  30.7085092 -24.4565513 -32.7537239
  30.5615305 -25.9501458 -33.7101294  29.0760000 -24.4440000 -34.1760000
  28.5818504 -25.2273374 -34.7507147  28.2150000 -24.0730000 -32.9840000
  27.2300000 -24.7650000 -32.6880000  28.5740000 -22.9900000 -32.2860000
  29.4244727 -22.4952501 -32.5140747  27.7770000 -22.5130000 -31.1620000
  27.7629034 -23.2625591 -30.3707594  28.3750000 -21.2250000 -30.6030000
  28.2356685 -20.4177539 -31.3220548  27.8951634 -20.9588044 -29.6611949
  29.8370000 -21.3040000 -30.3290000  30.3090000 -21.9520000 -29.2070000
  29.6024601 -22.4122778 -28.5163151  31.6550000 -22.0200000 -28.9570000
  32.0235829 -22.5389749 -28.0721766  32.5420000 -21.4300000 -29.8280000
  33.6133634 -21.4785120 -29.6332518  32.0740000 -20.7770000 -30.9480000
  32.7742531 -20.3088865 -31.6398204  30.7340000 -20.7170000 -31.1900000
  30.3625413 -20.1993133 -32.0743748  26.3390000 -22.2680000 -31.5810000
  25.3950000 -22.6560000 -30.8800000  26.1520000 -21.5960000 -32.7180000
  26.9174477 -21.1738037 -33.2239046  24.7990000 -21.3940000 -33.2180000
  24.2409284 -20.7992716 -32.4948448  24.8300000 -20.6420000 -34.5490000
  25.3777335 -21.2292588 -35.2860314  23.8105803 -20.4799231 -34.8991639
  25.3238168 -19.6799886 -34.4119664  24.0730000 -22.7250000 -33.3590000
  22.9210000 -22.8610000 -32.9340000  24.7390000 -23.7340000 -33.9190000
  25.7054427 -23.6548905 -34.2015411  24.0320000 -24.9720000 -34.2160000
  23.0831699 -24.7460957 -34.7026086  24.8580000 -25.8530000 -35.1450000
  25.9116428 -25.5840633 -35.0701057  24.7306114 -26.9004865 -34.8717890
  24.3780000 -25.6390000 -36.5830000  25.0244741 -24.9033276 -37.0614957
  24.4467564 -26.5856090 -37.1190093  22.6330000 -25.0380000 -36.6340000
  22.4610000 -24.3740000 -38.2820000  22.6478148 -25.1609586 -39.0126815
  21.4504160 -23.9878397 -38.4150449  23.1795936 -23.5671653 -38.4260217
  23.6700000 -25.7100000 -32.9510000  22.5270000 -26.1430000 -32.7810000
  24.6350000 -25.8640000 -32.0520000  25.5964262 -25.6715981 -32.2943643
  24.3500000 -26.3990000 -30.7250000  24.0930141 -27.4582637 -30.7292394
  25.5710000 -26.1940000 -29.8170000  25.9662848 -25.1913113 -29.9796794
  25.1880000 -26.3570000 -28.3510000  24.7930335 -27.3596714 -28.1874382
  26.0684877 -26.2074838 -27.7261106  24.4281460 -25.6205956 -28.0894047
  26.6770000 -27.1650000 -30.2350000  26.9558933 -26.9745034 -31.2713550
  27.5467694 -27.0238151 -29.5933867  26.3174084 -28.1894408 -30.1384822
  23.0880000 -25.7630000 -30.1430000  22.1740000 -26.4640000 -29.6940000
  23.0070000 -24.4240000 -30.1580000  23.7691002 -23.8586131 -30.5038905
  21.8390000 -23.7440000 -29.5910000  21.6419290 -24.1307986 -28.5911755
  22.0660000 -22.2250000 -29.5170000  22.3396573 -21.8523717 -30.5040968
  20.7830000 -21.5310000 -29.0470000  20.5089483 -21.9028007 -28.0597004
  20.9490580 -20.4549202 -28.9962290  19.9771660 -21.7409729 -29.7503080
  23.2000000 -21.8900000 -28.5610000  23.8738575 -22.7459888 -28.5249451
  23.7319466 -21.0260141 -28.9593222  22.7120000 -21.5820000 -27.1820000
  22.1803139 -22.4457463 -26.7828108  23.5609470 -21.3495808 -26.5390618
  22.0384007 -20.7257724 -27.2171885  20.5750000 -24.0620000 -30.3820000
  19.4980000 -24.2330000 -29.8000000  20.6680000 -24.1030000 -31.7170000
  21.5302639 -23.8840424 -32.1951818  19.4840000 -24.3990000 -32.5230000
  18.6604680 -23.7528744 -32.2190001  19.7700000 -24.1610000 -34.0070000
  20.7213331 -24.6494144 -34.2179880  18.9743232 -24.6635536 -34.5569440
  19.8420000 -22.7010000 -34.4390000  20.5459919 -22.1928649 -33.7799895
  20.2182756 -22.6742890 -35.4616462  18.4970000 -22.0020000 -34.3770000
  17.7115635 -22.6919049 -34.6855769  18.3055527 -21.6667472 -33.3576605
  18.4750000 -20.8390000 -35.2650000  19.2506269 -20.7328310 -35.9031461
  17.5110000 -19.9260000 -35.2820000  16.4860000 -20.0370000 -34.4460000
  16.4450858 -20.8143238 -33.8024211  15.7516921 -19.3436286 -34.4573019
  17.5700000 -18.9040000 -36.1340000  18.3513925 -18.8243200 -36.7689621
  16.8330802 -18.2133512 -36.1412284  18.9960000 -25.8290000 -32.2960000
  17.7820000 -26.0680000 -32.2480000  19.9210000 -26.7950000 -32.1460000
  20.9057248 -26.5795635 -32.2092733  19.5270000 -28.1920000 -31.9400000
  18.9519152 -28.5404868 -32.7978657  20.7590000 -29.0880000 -31.7800000
  21.3015774 -28.7070724 -30.9147814  20.3819379 -30.0869408 -31.5608163
  21.6930000 -29.1510000 -32.9750000  21.1220955 -29.5298608 -33.8227224
  22.0348816 -28.1388154 -33.1910982  22.9050000 -30.0580000 -32.7290000
  22.9440000 -30.7080000 -31.6560000  23.8150000 -30.1160000 -33.6030000
  18.6230000 -28.3410000 -30.7210000  17.6320000 -29.0760000 -30.7580000
  18.9530000 -27.6470000 -29.6250000  19.7232420 -26.9949206 -29.6652375
  18.2620000 -27.8250000 -28.3500000  17.9854325 -28.8682750 -28.1977278
  19.1580000 -27.3820000 -27.1900000  18.6799703 -27.6614785 -26.2511285
  20.5280000 -28.0420000 -27.2780000  21.0068697 -27.7625945 -28.2164647
  21.1455637 -27.7111659 -26.4429773  20.4133086 -29.1251971 -27.2376208
  19.3030000 -25.9520000 -27.2120000  19.8649410 -25.6761219 -26.4841856
  16.9490000 -27.0610000 -28.2560000  16.1570000 -27.3520000 -27.3510000
  16.6980000 -26.1090000 -29.1610000  17.3020986 -26.0125348 -29.9646534
  15.5740000 -25.1960000 -29.0300000  15.2762836 -24.8241685 -30.0104109
  14.7302257 -25.7040871 -28.5631041  15.9850000 -24.0250000 -28.1630000
  16.8000000 -24.1910000 -27.2410000  15.4660000 -22.8330000 -28.4300000
  14.8127181 -22.6632382 -29.1813342  15.9320000 -21.6950000 -27.6500000
  16.9383468 -21.8954725 -27.2823369  15.9650000 -20.4200000 -28.4940000
  15.0673915 -20.3715568 -29.1104832  16.0003606 -19.5519005 -27.8357805
  17.1120000 -20.4270000 -29.3290000  17.1285456 -19.6252011 -29.8566784
  15.0740000 -21.4990000 -26.4060000  13.8660000 -21.7620000 -26.4080000
  15.7260000 -21.0300000 -25.3390000  16.6968947 -20.7663608 -25.4282028
  15.1050000 -20.9440000 -24.0240000  14.6173827 -21.8885728 -23.7829382
  16.1560000 -20.6510000 -22.9560000  16.7833223 -19.8251029 -23.2913505
  15.6537436 -20.3722021 -22.0296576  16.9630000 -21.7960000 -22.7300000
  17.6184699 -21.5977576 -22.0572007  14.0040000 -19.8850000 -23.9840000
  13.9330000 -18.9790000 -24.8220000  13.1230000 -20.0320000 -22.9940000
  13.2505655 -20.8079731 -22.3602081  11.9770000 -19.1570000 -22.7920000
  11.7106870 -18.6905087 -23.7404527  10.7590000 -19.9290000 -22.2660000
  11.0533718 -20.3341115 -21.2978424   9.9705805 -19.1895980 -22.1253607
  10.2440000 -21.0590000 -23.1550000  11.0983410 -21.6736682 -23.4385232
   9.5483269 -21.6550108 -22.5643122   9.5400000 -20.5540000 -24.4140000
   8.7587967 -19.8511405 -24.1245023  10.2681184 -20.0466896 -25.0469132
   8.9190000 -21.7150000 -25.1840000   9.6091557 -22.5577585 -25.1447092
   7.9846466 -21.9880452 -24.6935621   8.6490000 -21.3620000 -26.6020000
   9.5147276 -21.1093735 -27.0567475   8.2396010 -22.1553411 -27.0743370
   8.0091713 -20.5813745 -26.6386348  12.3350000 -18.0560000 -21.8050000
  13.2290000 -18.2130000 -20.9680000  11.6310000 -16.9340000 -21.9230000
  10.9989222 -16.8003579 -22.6993483  11.7840000 -15.8520000 -20.9650000
  12.8294957 -15.5500156 -20.9030046  10.9540000 -14.6490000 -21.4080000
  11.2361208 -14.5538762 -22.4565507   9.9058078 -14.9399789 -21.3392652
  11.1580000 -13.3060000 -20.7010000  10.7437220 -13.3785771 -19.6954120
  12.6420000 -12.9360000 -20.6160000  13.0568915 -12.8627796 -21.6212874
  12.7494912 -11.9773989 -20.1084270  13.1771134 -13.7041614 -20.0577151
  10.3660000 -12.2030000 -21.4080000   9.3048963 -12.4520116 -21.3956834
  10.5222987 -11.2553747 -20.8925601  10.7061069 -12.1151729 -22.4398492
  11.3560000 -16.3270000 -19.5820000  10.3850000 -17.0740000 -19.4440000
  12.1110000 -15.9230000 -18.5600000  12.9528189 -15.4023321 -18.7608615
  11.8090000 -16.2390000 -17.1690000  11.0932962 -17.0600472 -17.1271824
  13.0800000 -16.6570000 -16.4150000  13.8313933 -15.8923475 -16.6120124
  12.8329534 -16.6578938 -15.3533658  13.6320000 -18.0280000 -16.8110000
  12.9862416 -18.7858827 -16.3674792  13.5857413 -18.1025888 -17.8974616
  15.0780000 -18.2510000 -16.3440000  15.6488377 -18.6418969 -17.1862844
  15.4886956 -17.2870918 -16.0434847  15.1640000 -19.2210000 -15.1820000
  14.9465323 -18.6902278 -14.2551293  14.4329029 -20.0167965 -15.3244923
  16.5260000 -19.8080000 -15.1080000  17.2035620 -19.0708013 -14.9755331
  16.5732147 -20.4521936 -14.3315431  16.7275431 -20.3002331 -15.9665954
  11.1560000 -15.0390000 -16.4810000  11.2310000 -13.9020000 -16.9580000
  10.4670000 -15.3200000 -15.3710000  10.2572721 -16.2881821 -15.1741830
   9.9720000 -14.3040000 -14.4490000  10.0356528 -13.3230917 -14.9200271
   8.5070000 -14.5710000 -14.0660000   7.8978272 -14.4741913 -14.9646856
   8.3852952 -15.5716317 -13.6512420   7.9370000 -13.6130000 -13.0540000
   7.3140000 -12.4310000 -13.4070000   6.9040000 -11.8070000 -12.3120000
   6.3909325 -10.8477881 -12.3810885   7.2310000 -12.5430000 -11.2620000
   7.0479572 -12.3156781 -10.2950874   7.8680000 -13.6820000 -11.6980000
   8.2063290 -14.4268719 -10.9777219  10.8690000 -14.3200000 -13.2170000
  11.2320000 -15.3930000 -12.7170000  11.2550000 -13.1350000 -12.7470000
  10.9709110 -12.2924094 -13.2259925  12.1240000 -13.0090000 -11.5840000
  12.3280984 -13.9982538 -11.1743417  13.4600000 -12.3470000 -11.9580000
  13.2925675 -11.3435773 -12.3494185  14.0939191 -12.2901644 -11.0731179
  14.2560000 -13.1010000 -13.0170000  14.0770000 -12.8300000 -14.3700000
  13.3556047 -12.0679784 -14.6649778  14.7970000 -13.5100000 -15.3340000
  14.6394211 -13.2900924 -16.3898931  15.7150000 -14.4670000 -14.9590000
  16.2869458 -15.0029665 -15.7164416  15.9100000 -14.7470000 -13.6180000
  16.6327084 -15.5067095 -13.3202850  15.1890000 -14.0640000 -12.6560000
  15.3497696 -14.2789581 -11.5995692  11.4080000 -12.2040000 -10.5090000
  10.9880000 -11.0670000 -10.7560000  11.2500000 -12.8020000  -9.3280000
  11.4655027 -13.7820980  -9.2136937  10.7440000 -12.0670000  -8.1760000
   9.6634034 -11.9492988  -8.2569727  11.0590000 -12.8250000  -6.8790000
  12.0514639 -13.2515108  -7.0246134  11.1019233 -12.0638862  -6.0999214
  10.0890000 -13.9260000  -6.4610000   9.1108336 -13.4890900  -6.2600002
  10.0018766 -14.6559630  -7.2657767  10.6090000 -14.6210000  -5.1940000
  10.2255601 -14.1028320  -4.3150377  10.2662271 -15.6556478  -5.1835091
  12.0800000 -14.6110000  -5.1430000  12.5455537 -13.9997781  -5.7985661
  12.8270000 -15.3330000  -4.3040000  12.2550000 -16.1550000  -3.4240000
  11.2485744 -16.2331031  -3.3907202  12.8306951 -16.6958811  -2.7946175
  14.1540000 -15.2360000  -4.3520000  14.5881589 -14.6174538  -5.0220796
  14.7204078 -15.7814083  -3.7181146  11.3790000 -10.6850000  -8.1270000
  12.6010000 -10.5500000  -8.1760000  10.5470000  -9.6590000  -8.0460000
   9.5502351  -9.7757157  -8.1597392  11.0550000  -8.3350000  -7.7900000
  10.2281204  -7.7584383  -7.3753364  11.8366693  -8.4408887  -7.0377500
  11.6170000  -7.6000000  -8.9820000  12.1970000  -6.5220000  -8.8070000
  11.4630000  -8.1270000 -10.1890000  11.0590899  -9.0474190 -10.2879183
  11.9200000  -7.4420000 -11.3880000  12.3807855  -6.4871604 -11.1349045
  12.9390000  -8.2880000 -12.1640000  12.4614343  -9.2046946 -12.5099786
  13.4450000  -7.5060000 -13.3510000  13.9231391  -6.5893234 -13.0057639
  14.1684616  -8.1074984 -13.9013666  12.6094623  -7.2554394 -14.0046037
  14.0850000  -8.6750000 -11.2450000  13.6988840  -9.2532772 -10.4055883
  14.8075630  -9.2756022 -11.7975208  14.5720151  -7.7741994 -10.8715361
  10.7140000  -7.1060000 -12.2520000   9.8940000  -7.9830000 -12.5550000
  10.5990000  -5.8310000 -12.6290000  11.2089778  -5.1275417 -12.2376271
   9.5860000  -5.4110000 -13.5850000   8.5889956  -5.4514734 -13.1463163
   9.8690000  -3.9740000 -14.0230000  10.8604310  -3.9192301 -14.4726276
   9.1218783  -3.6622672 -14.7528850   9.8267656  -3.3144248 -13.1562382
   9.5930000  -6.3430000 -14.7910000  10.6580000  -6.6880000 -15.3090000
   8.4010000  -6.7550000 -15.2500000   7.5359905  -6.5008513 -14.7947348
   8.3430000  -7.6800000 -16.3850000   8.9914437  -8.5344791 -16.1913885
   6.9170000  -8.1890000 -16.6090000   6.2271869  -7.4119193 -16.2797544
   6.7842203  -8.3633883 -17.6767351   6.6330000  -9.4770000 -15.8450000
   5.4560000  -9.9030000 -15.7800000   7.5950000 -10.0690000 -15.3030000
   8.8980000  -7.0660000 -17.6700000   9.4950000  -7.7810000 -18.4830000
   8.7360000  -5.7560000 -17.8750000   8.1800201  -5.1584513 -17.2800872
   9.3260000  -5.1780000 -19.0800000   9.1182309  -5.8251970 -19.9320958
   8.7470000  -3.7850000 -19.3690000   9.1304391  -3.4992390 -20.3484970
   7.6664905  -3.9164639 -19.4265899   9.0690000  -2.7030000 -18.3680000
  10.0237278  -2.9437728 -17.9004274   9.1535498  -1.7542106 -18.8978578
   8.0000000  -2.5920000 -17.3030000   7.0800000  -3.4420000 -17.3150000
   8.0750000  -1.6610000 -16.4620000  10.8490000  -5.1020000 -19.0220000
  11.4580000  -4.6880000 -20.0180000  11.4710000  -5.4950000 -17.9060000
  10.9103116  -5.7733192 -17.1133675  12.9220000  -5.4750000 -17.7540000
  13.3856671  -5.1106593 -18.6707158  13.3240000  -4.5500000 -16.6010000
  12.7221514  -4.7984545 -15.7268445  14.3752178  -4.7388203 -16.3833121
  13.1340000  -3.0810000 -16.9460000  13.6080000  -2.6480000 -18.0330000
  12.4960000  -2.3600000 -16.1380000  13.5040000  -6.8630000 -17.5350000
  14.7030000  -6.9830000 -17.2580000  12.6930000  -7.9160000 -17.6720000
  11.7365072  -7.7940433 -17.9725784  13.1420000  -9.2590000 -17.3220000
  13.6793469  -9.1865961 -16.3764234  11.9420000 -10.1930000 -17.1330000
  11.3990720 -10.2827843 -18.0738868  12.2923102 -11.1768709 -16.8209406
  11.2798088  -9.7846709 -16.3695412  14.0970000  -9.8450000 -18.3520000
  14.8420000 -10.7730000 -18.0260000  14.0920000  -9.3370000 -19.5850000
  13.3831136  -8.6900811 -19.8997625  15.0970000  -9.7820000 -20.5440000
  15.1241725 -10.8714259 -20.5666267  14.7710000  -9.2690000 -21.9570000
  15.5220144  -9.6220625 -22.6636990  13.7882164  -9.6281220 -22.2623979
  14.7380000  -7.7740000 -22.0770000  13.7380000  -7.0000000 -21.5230000
  13.9740000  -5.7260000 -21.7830000  13.2937542  -4.9521675 -21.4272644
  15.0910000  -5.6430000 -22.4870000  15.5200299  -4.7931628 -22.8243573
  15.5840000  -6.9100000 -22.6910000  16.5009852  -7.0524824 -23.2627851
  16.5010000  -9.3470000 -20.1370000  17.4770000  -9.9210000 -20.6360000
  16.6250000  -8.3680000 -19.2310000  15.7876670  -7.9575043 -18.8431004
  17.9150000  -7.8120000 -18.8360000  18.6524690  -7.9956281 -19.6173574
  17.7990000  -6.2960000 -18.6170000  16.9728316  -6.0959769 -17.9346981
  18.7294954  -5.9410202 -18.1739790  17.5530000  -5.5270000 -19.9250000
  18.1860000  -5.7980000 -20.9590000  16.6210000  -4.5690000 -19.8820000
  16.4162275  -4.0303320 -20.7114606  16.1261083  -4.3884873 -19.0202587
  18.4910000  -8.4780000 -17.5950000  19.5280000  -8.0370000 -17.0940000
  17.8490000  -9.5240000 -17.0990000  16.9470870  -9.7692322 -17.4817708
  18.3630000 -10.3090000 -15.9890000  19.0474529  -9.7316113 -15.3675132
  17.2120000 -10.8390000 -15.1250000  16.5814776 -11.4868408 -15.7339698
  17.7500000 -11.6230000 -13.9440000  18.3802885 -10.9756511 -13.3342653
  16.9187935 -11.9910837 -13.3425760  18.3382394 -12.4666862 -14.3049253
  16.3260000  -9.6780000 -14.6730000  15.8109597  -9.2982534 -15.5553983
  15.5951710 -10.0797139 -13.9711351  17.0860000  -8.5620000 -14.0190000
  17.8167541  -8.1594446 -14.7204609  16.3932385  -7.7736765 -13.7245058
  17.6009675  -8.9409061 -13.1361985  19.2060000 -11.4500000 -16.5480000
  18.7580000 -12.1860000 -17.4360000  20.4270000 -11.5980000 -16.0330000
  20.7690979 -10.9691300 -15.3205458  21.3150000 -12.6520000 -16.5090000
  21.3822934 -12.6118708 -17.5961800  22.7160000 -12.4830000 -15.9270000
  23.0775692 -11.4965567 -16.2173389  22.6310695 -12.5332714 -14.8414773
  23.6880000 -13.5360000 -16.4050000  24.6325771 -13.4009925 -15.8780769
  23.2926863 -14.5292867 -16.1923720  23.9430000 -13.4260000 -17.8870000
  24.1800000 -12.3400000 -18.3900000  23.8800000 -14.5420000 -18.5960000
  24.0441747 -14.5137475 -19.5921676  23.6680473 -15.4166422 -18.1375477
  20.7770000 -14.0270000 -16.1340000  20.3100000 -14.2500000 -15.0110000
  20.8720000 -14.9640000 -17.0750000  21.2464525 -14.7219780 -17.9812616
  20.4010000 -16.3210000 -16.8650000  20.0041659 -16.4273144 -15.8553866
  19.2980000 -16.6940000 -17.8680000  19.1719611 -17.7766845 -17.8709345
  17.9780000 -16.0290000 -17.4810000  18.1031389 -14.9462107 -17.4783007
  17.2074082 -16.3033787 -18.2014191  17.6804126 -16.3623167 -16.4867957
  19.6770000 -16.2760000 -19.1870000  18.9844667 -16.5115972 -19.8086848
  21.5580000 -17.3070000 -16.9690000  22.6220000 -17.0080000 -17.5200000
  21.3380000 -18.4950000 -16.4180000  20.4684765 -18.6652586 -15.9331905
  22.3250000 -19.5560000 -16.4520000  23.1057049 -19.3113114 -17.1722267
  22.9640000 -19.7320000 -15.0840000  23.5678152 -18.8569662 -14.8435375
  22.2020087 -19.8689840 -14.3167291  23.8700000 -20.9110000 -15.0000000
  23.4430000 -22.1490000 -14.5690000  24.4540000 -22.9980000 -14.6090000
  24.3192820 -24.0371132 -14.3086772  25.5220000 -22.3530000 -15.0460000
  26.4428001 -22.7477062 -15.1741951  25.1820000 -21.0470000 -15.3020000
  25.9327992 -20.3520510 -15.6780954  21.6550000 -20.8470000 -16.9010000
  20.5390000 -21.1580000 -16.4640000  22.3320000 -21.5770000 -17.7910000
  23.1480538 -21.1529094 -18.2084958  21.9500000 -22.9180000 -18.2250000
  21.1965007 -23.3137673 -17.5440402  21.3710000 -22.9120000 -19.6480000
  20.7238243 -23.7841772 -19.7405727  20.7753448 -22.0053296 -19.7540359
  22.4330000 -22.9510000 -20.7370000  23.1866964 -22.2031091 -20.4906228
  22.8865109 -23.9420484 -20.7210905  21.8700000 -22.6680000 -22.1390000
  21.6256403 -21.6074609 -22.1993658  22.6433964 -22.9042932 -22.8698372
  20.6730000 -23.4430000 -22.4570000  20.1711165 -23.8632715 -21.6878549
  20.2090000 -23.6230000 -23.6930000  20.8480000 -23.1000000 -24.7300000
  21.6903144 -22.5627827 -24.5816623  20.4896046 -23.2411434 -25.6636653
  19.1040000 -24.3300000 -23.8950000  18.6145542 -24.7321098 -23.1083294
  18.7576808 -24.4626308 -24.8344524  23.1810000 -23.8130000 -18.1530000
  24.2440000 -23.4020000 -17.6880000  23.0540000 -25.0500000 -18.6260000
  22.1500830 -25.4218237 -18.8805203  24.2120000 -25.9430000 -18.6810000
  24.9103737 -25.6869260 -17.8842569  23.7850000 -27.3940000 -18.5060000
  22.9076214 -27.5470224 -19.1344029  24.5902364 -28.0473758 -18.8418488
  23.4360000 -27.7210000 -17.0580000  23.1070000 -26.7760000 -16.2930000
  23.5150000 -28.9130000 -16.6800000  24.9840000 -25.7060000 -19.9810000
  25.1320000 -26.5740000 -20.8450000  25.4690000 -24.4700000 -20.1050000
  25.2775961 -23.7742539 -19.3983167  26.2380000 -24.0730000 -21.2720000
  25.6876360 -24.3231248 -22.1789930  26.4970000 -22.5610000 -21.2570000
  26.9866269 -22.3097350 -20.3161330  27.1618464 -22.3221800 -22.0870870
  25.2970000 -21.8110000 -21.3810000  25.5027841 -20.8734163 -21.3672299
  27.5630000 -24.8080000 -21.3630000  28.1570000 -24.8370000 -22.4450000
  28.0510000 -25.3900000 -20.2660000  27.5954746 -25.3249980 -19.3669056
  29.3410000 -26.0650000 -20.3400000  30.0704840 -25.4231472 -20.8339405
  29.8450000 -26.3850000 -18.9350000  28.9772525 -26.8243784 -18.4430039
  30.6594647 -27.1092571 -18.9491076  30.2900000 -25.1270000 -18.1640000
  29.4752379 -24.4034271 -18.1905681  30.6430000 -25.4460000 -16.7050000
  31.4580555 -26.1692106 -16.6776175  30.9515411 -24.5322209 -16.1971506
  29.7704865 -25.8634696 -16.2024667  31.4500000 -24.4120000 -18.8700000
  31.1368158 -24.1096421 -19.8692971  31.7363860 -23.5300045 -18.2971403
  32.3018518 -25.0878076 -18.9457080  29.2590000 -27.3130000 -21.2100000
  30.1730000 -27.5890000 -21.9970000  28.1670000 -28.0710000 -21.1000000
  27.4846880 -27.9115212 -20.3725963  27.9660000 -29.2020000 -22.0020000
  28.8294010 -29.8662847 -21.9650703  26.7230000 -29.9920000 -21.5860000
  25.8306180 -29.3953712 -21.7751764  26.7002489 -30.8863158 -22.2087212
  26.7610000 -30.3970000 -20.1170000  27.5070000 -31.3480000 -19.7700000
  26.0690000 -29.7370000 -19.3030000  27.8480000 -28.7250000 -23.4430000
  28.5570000 -29.2140000 -24.3320000  26.9540000 -27.7580000 -23.6880000
  26.3204786 -27.4518309 -22.9634240  26.8340000 -27.1550000 -25.0130000
  26.4768252 -27.8953202 -25.7288570  25.8390000 -25.9940000 -24.9730000
  26.2578712 -25.3323279 -24.2148205  25.8503211 -25.4909249 -25.9398957
  24.4060000 -26.3470000 -24.6020000  24.3996033 -26.7961768 -23.6088736
  23.5230000 -25.0980000 -24.6020000  23.5285278 -24.6484989 -25.5949839
  22.5029818 -25.3735230 -24.3341366  23.9073681 -24.3806704 -23.8768795
  23.8810000 -27.4070000 -25.5590000  24.5038916 -28.2989193 -25.4912835
  22.8545488 -27.6603181 -25.2938037  23.9079252 -27.0222068 -26.5784647
  28.1810000 -26.6650000 -25.5290000  28.4690000 -26.7520000 -26.7290000
  29.0150000 -26.1280000 -24.6400000  28.7703168 -26.0350109 -23.6645091
  30.2870000 -25.5820000 -25.0870000  30.1191240 -24.8403217 -25.8679163
  31.0120000 -24.9090000 -23.9220000  30.3649732 -24.0606685 -23.6988648
  31.0482442 -25.5744068 -23.0594340  32.4180000 -24.4070000 -24.2360000
  32.9806025 -25.2046908 -24.7210451  32.3550000 -23.2010000 -25.1560000
  31.7929063 -22.4026708 -24.6714177  33.3657409 -22.8542033 -25.3710249
  31.8610548 -23.4790162 -26.0870346  33.1990000 -24.1160000 -22.9570000
  33.2798531 -25.0274575 -22.3647100  34.1968922 -23.7599875 -23.2130616
  32.6786884 -23.3524833 -22.3787119  31.1530000 -26.6610000 -25.7230000
  31.7720000 -26.4260000 -26.7680000  31.1900000 -27.8600000 -25.1320000
  30.6915801 -28.0552570 -24.2755237  32.0410000 -28.9080000 -25.6930000
  33.0005631 -28.4822122 -25.9863301  32.2910000 -30.0170000 -24.6650000
  31.3379834 -30.5148340 -24.4860591  32.9956432 -30.7271087 -25.0978090
  32.8450000 -29.4920000 -23.3460000  32.2480000 -29.8110000 -22.2920000
  33.8610000 -28.7600000 -23.3550000  31.4390000 -29.4880000 -26.9740000
  32.1780000 -29.8270000 -27.9100000  30.1010000 -29.6120000 -27.0350000
  29.5274430 -29.4098308 -26.2286134  29.4430000 -30.0960000 -28.2520000
  29.8246038 -31.0852633 -28.5046576  27.9270000 -30.1920000 -28.0540000
  27.5877300 -29.1978937 -27.7628852  27.5023546 -30.4506868 -29.0239781
  27.4740000 -31.2050000 -27.0170000  27.8099367 -32.1941446 -27.3281918
  27.9311204 -30.9508060 -26.0606902  25.9570000 -31.2070000 -26.8700000
  25.5941502 -30.1853552 -26.9826098  25.5311598 -31.8318630 -27.6550515
  25.5360000 -31.7500000 -25.5010000  25.9385703 -32.7583298 -25.4045178
  25.9774104 -31.1085807 -24.7382174  24.0540000 -31.7870000 -25.3230000
  23.6448244 -32.3816450 -26.0294505  23.8339275 -32.1516868 -24.4072098
  23.6808200 -30.8526953 -25.4119409  29.7460000 -29.2020000 -29.4440000
  29.8850000 -29.6920000 -30.5670000  29.8360000 -27.8930000 -29.2240000
  29.5617119 -27.4922454 -28.3384148  30.2720000 -26.9940000 -30.2830000
  29.7346010 -27.2421709 -31.1982665  29.9550000 -25.5400000 -29.9070000
  30.4931642 -25.2738259 -28.9972579  30.2630584 -24.8792032 -30.7172764
  28.8833452 -25.4329665 -29.7390743  31.7570000 -27.1610000 -30.5700000
  32.1480000 -27.4300000 -31.7120000  32.5870000 -26.9940000 -29.5480000
  32.2114708 -26.7394025 -28.6456379  34.0220000 -27.1200000 -29.6830000
  34.3536958 -26.5998762 -30.5816369  34.7390000 -26.5060000 -28.4660000
  34.2578136 -26.9211192 -27.5804296  35.7732560 -26.8472193 -28.5105413
  34.7090000 -24.9720000 -28.3930000  35.2607557 -24.5861083 -29.2501780
  33.6682199 -24.6549112 -28.4588295  35.3390000 -24.4180000 -27.0770000
  35.4398299 -23.3375888 -27.1801696  34.6573929 -24.6420676 -26.2564484
  36.6550000 -24.9850000 -26.7630000  36.6890843 -25.6766673 -26.0277898
  37.7910000 -24.6490000 -27.3730000  37.7900000 -23.7440000 -28.3490000
  36.9226432 -23.3089694 -28.6292508  38.6566017 -23.4964563 -28.8048763
  38.9350000 -25.2230000 -27.0090000  38.9381333 -25.9121948 -26.2706906
  39.7949209 -24.9668405 -27.4726993  34.4070000 -28.5900000 -29.8350000
  35.5930000 -28.9260000 -29.9010000  33.0960000 -29.6980000 -30.0220000
  25.2010000   3.6740000 -26.7320000  25.4950000   3.3270000 -28.3760000
  25.8140000   2.1880000 -26.1620000  25.1800000   4.1350000 -29.4800000
  26.1380000   2.1040000 -28.5300000  26.3600000   1.4530000 -27.2410000
  25.8620000   1.8870000 -24.7080000  24.5650000   5.3130000 -29.3140000
  25.5010000   3.7170000 -30.7720000  26.4810000   1.7080000 -29.8610000
  27.1020000   0.1380000 -27.1970000  24.9710000   1.1710000 -24.2370000
  26.8820000   2.3560000 -23.7870000  26.1530000   2.5100000 -30.9620000
  27.9030000   3.4360000 -24.0120000  26.6360000   1.8990000 -22.4220000
  28.7820000   3.9090000 -22.8220000  27.6410000   2.2060000 -21.3270000
  29.7530000   4.8910000 -23.0150000  28.6150000   3.3020000 -21.5790000
  30.5480000   5.2150000 -21.9360000  29.4340000   3.6800000 -20.5100000
  31.6690000   6.2510000 -21.9990000  30.4100000   4.6370000 -20.6840000
  32.4000000   6.4160000 -21.0180000  31.8320000   7.0030000 -23.1380000
  32.7910000   8.0970000 -23.1340000  33.6920000   8.0630000 -24.3340000
  35.0790000   8.0960000 -24.1880000  33.1540000   7.9760000 -25.6240000
  35.8970000   8.1170000 -25.3160000  33.9830000   8.0160000 -26.7500000
  35.3700000   8.1150000 -26.6180000  36.2480000   8.1700000 -27.6910000
  37.4010000   7.2640000 -27.7990000  35.6510000   8.4880000 -29.0040000
  38.4550000   7.9030000 -28.7460000  36.7260000   9.1500000 -29.8880000
  37.9020000   8.2700000 -30.0750000  38.9080000   8.9440000 -30.8920000
  26.0250000   2.9130000 -30.3920000  25.6100000   1.5440000 -30.3910000
  26.8520000   1.1490000 -27.4410000  26.3220000  -0.2890000 -26.6010000
  27.2140000  -0.4290000 -28.0980000  25.8080000   1.5500000 -31.1190000
  28.1940000   2.8000000 -24.8220000  28.0520000   3.0550000 -23.0230000
  25.7820000   2.0420000 -21.7920000  26.4660000   1.8620000 -23.4780000
  27.3500000   2.6860000 -20.4160000  27.4840000   2.7800000 -22.2160000
  29.0040000   4.6130000 -20.6050000  31.0120000   5.4750000 -20.6740000
  31.3480000   6.1460000 -23.1370000  33.1340000   8.9230000 -22.5470000
  33.0990000   8.1910000 -24.1540000  35.3560000   8.4150000 -25.1300000
  32.5610000   8.5680000 -25.0210000  36.5520000   7.5660000 -25.8930000
  33.7330000   7.7150000 -25.7950000  36.4550000   6.9020000 -27.4540000
  37.6740000   8.1270000 -27.2300000  35.6070000   8.7920000 -30.0290000
  34.7060000   8.0690000 -28.7250000  38.4580000   7.5900000 -27.7230000
  39.3930000   8.3230000 -29.0420000  37.6560000   9.5760000 -30.2010000
  36.4760000   8.2930000 -30.4780000  37.0380000   7.8180000 -29.7760000
  39.8290000   9.3920000 -31.1990000  38.7030000   8.0920000 -31.5070000
  38.9850000   8.6350000 -29.8700000
