MOL
    72
   1.8800000  -0.7390000   0.0020000   2.2040000   0.9400000   0.0920000
   0.1980000  -0.4790000   0.0260000   3.5420000   1.5070000   0.0820000
   1.0320000   1.6690000   0.1680000  -0.1360000   0.8470000   0.1320000
  -0.8070000  -1.5730000  -0.1310000   3.7340000   2.7210000   0.1140000
   4.5880000   0.6160000   0.0330000  -1.5340000   1.3600000   0.1450000
  -2.2120000  -1.0380000   0.1870000   5.9650000   1.0490000   0.0270000
  -2.4510000   0.3350000  -0.3010000   6.6710000   0.6220000  -1.2330000
  -3.7000000   0.6120000  -0.8460000   6.2180000   1.0550000  -2.4780000
   7.8250000  -0.1670000  -1.1700000  -4.3870000  -0.3440000  -1.2300000
  -4.2450000   1.9850000  -0.9700000   6.8890000   0.6700000  -3.6380000
   8.5010000  -0.5370000  -2.3450000  -5.6260000   1.9190000  -1.1570000
  -3.8560000   3.1190000  -1.7050000   8.0340000  -0.1410000  -3.6040000
  -5.7900000   2.2920000  -2.4530000  -4.6970000   3.0370000  -2.8590000
  -2.8030000   4.1480000  -1.5030000   8.6500000  -0.4710000  -4.8030000
  -6.8460000   1.9240000  -3.2690000  -4.6680000   3.5060000  -4.1810000
  10.0720000  -0.8470000  -4.8580000   7.8270000  -1.2750000  -5.7310000
  -7.8730000   1.1400000  -2.8190000  -6.7450000   2.2730000  -4.6090000
  -5.6690000   3.0530000  -5.0590000  10.5790000  -0.6780000  -6.3160000
   8.3520000  -1.0870000  -7.1700000   9.7830000  -1.4500000  -7.3020000
  10.2440000  -1.1850000  -8.6630000   1.0040000   2.6980000   0.2420000
  -0.5710000  -2.3720000   0.5410000  -0.7840000  -1.9320000  -1.1380000
   4.3910000  -0.3480000   0.0010000  -1.6060000   2.2050000  -0.5070000
  -1.7900000   1.6440000   1.1440000  -2.3450000  -1.0470000   1.2480000
  -2.9100000  -1.6740000  -0.3170000   6.4680000   0.6210000   0.8690000
   5.9820000   2.1180000   0.0770000   5.3860000   1.6620000  -2.5410000
   8.1820000  -0.4790000  -0.2530000   6.5320000   0.9920000  -4.5510000
   9.3560000  -1.1120000  -2.2800000  -2.3210000   3.9860000  -0.5620000
  -3.2490000   5.1210000  -1.5130000  -2.0810000   4.0790000  -2.2900000
  -3.9370000   4.1620000  -4.4980000  10.1870000  -1.8660000  -4.5530000
  10.6390000  -0.2200000  -4.2010000   6.8080000  -0.9520000  -5.6770000
   7.8840000  -2.3090000  -5.4600000  -7.9260000   0.9130000  -1.9120000
  -7.4650000   1.9580000  -5.2780000  -5.6100000   3.2990000  -6.0600000
  11.5950000  -1.0100000  -6.3640000  10.4830000   0.3570000  -6.5700000
   8.2320000  -0.0600000  -7.4470000   7.7910000  -1.7350000  -7.8090000
   9.9010000  -2.4460000  -7.1160000  10.1290000  -0.1440000  -8.8820000
   9.6650000  -1.7610000  -9.3540000  11.2750000  -1.4560000  -8.7490000
