MOL
    70
   1.2470000  -0.1270000  -0.1450000   0.1970000  -1.4960000   0.0420000
   0.5810000  -2.8440000   0.1730000  -1.2250000  -1.2560000   0.0370000
  -0.8170000  -3.7960000   0.3860000   1.9810000  -3.3230000   0.0940000
  -1.9130000  -2.4500000   0.2240000  -1.9840000  -0.0550000  -0.1310000
   2.8380000  -2.4440000  -0.0960000   2.5240000  -4.6620000   0.1540000
  -3.3310000  -2.4620000   0.2640000  -3.3840000  -0.0700000  -0.1090000
   1.9010000  -5.9880000   0.5050000   3.9470000  -4.6390000  -0.2070000
  -4.0490000  -1.2680000   0.0920000   2.7440000  -7.2880000   0.2480000
   4.8130000  -5.8580000  -0.0410000   2.1740000  -8.5500000   0.3780000
   4.1050000  -7.1590000  -0.0490000   3.0040000  -9.6450000   0.1890000
   4.9010000  -8.2920000  -0.2550000   2.5420000 -11.0760000   0.3560000
   4.3520000  -9.5480000  -0.1410000   3.3690000 -11.9900000   0.3000000
   1.2130000 -11.3520000   0.5550000   0.7480000 -12.7280000   0.6930000
  -0.3760000 -13.0370000  -0.2580000  -0.1820000 -12.9690000  -1.6380000
  -1.6380000 -13.3990000   0.2110000  -1.2550000 -13.1560000  -2.5200000
  -2.6980000 -13.6040000  -0.6830000  -2.5530000 -13.4450000  -2.0700000
  -3.6300000 -13.4930000  -2.9370000  -3.5070000 -13.9440000  -4.3350000
  -5.0250000 -13.4460000  -2.4630000  -4.3990000 -13.0740000  -5.2550000
  -5.8820000 -12.5900000  -3.4250000  -5.8150000 -13.0640000  -4.8240000
  -6.6190000 -12.2110000  -5.6950000  -1.4900000   0.8410000  -0.2700000
  -3.8350000  -3.3490000   0.4180000  -3.9150000   0.8050000  -0.2420000
   0.9980000  -6.0760000  -0.0640000   1.7780000  -5.9540000   1.5670000
   4.3960000  -3.8650000   0.3800000   3.9160000  -4.5190000  -1.2700000
  -5.0810000  -1.2830000   0.1170000   5.3280000  -5.7700000   0.8930000
   5.4590000  -5.8740000  -0.8940000   5.8990000  -8.1840000  -0.4930000
   4.9230000 -10.3930000  -0.2950000   0.5650000 -10.6120000   0.6050000
   0.4040000 -12.8780000   1.6950000   1.5650000 -13.3790000   0.4640000
   0.7610000 -12.7800000  -2.0130000  -1.7930000 -13.5180000   1.2250000
  -1.0850000 -13.0780000  -3.5350000  -3.6180000 -13.8820000  -0.3080000
  -3.8170000 -14.9660000  -4.4060000  -2.4870000 -13.8510000  -4.6450000
  -5.0520000 -13.0150000  -1.4840000  -5.4190000 -14.4410000  -2.4330000
  -4.3450000 -13.4600000  -6.2510000  -4.0350000 -12.0690000  -5.2040000
  -5.5320000 -11.5800000  -3.3890000  -6.9010000 -12.6670000  -3.1060000
  -6.1950000 -14.0090000  -4.8860000  -6.2470000 -11.2090000  -5.6550000
  -7.6380000 -12.2270000  -5.3690000  -6.5610000 -12.5730000  -6.7010000
