%VERSION  VERSION_STAMP = V0001.000  DATE = 08/28/26  15:05:52                  
%FLAG TITLE                                                                     
%FORMAT(20a4)                                                                   
MOL                                                                             
%FLAG POINTERS                                                                  
%FORMAT(10I8)                                                                   
      73      15      33      45      75      65     130     107       0       0
     415       1      45      65     107      31      61      33      19       0
       0       0       0       0       0       0       0       0      73       0
       0
%FLAG ATOM_NAME                                                                 
%FORMAT(20a4)                                                                   
S1  C1  C2  C3  C4  C5  C6  F1  C7  C8  C9  O1  N1  C10 C11 C12 C13 C14 N2  C15 
C16 C17 C18 C19 O2  N3  C20 C21 C22 C23 C24 C25 C26 N4  C27 C28 C29 C30 N5  C31 
H1  H2  H3  H4  H5  H6  H7  H8  H9  H10 H11 H12 H13 H14 H15 H16 H17 H18 H19 H20 
H21 H22 H23 H24 H25 H26 H27 H28 H29 H30 H31 H32 H33 
%FLAG CHARGE                                                                    
%FORMAT(5E16.8)                                                                 
  1.30289445E+00 -2.09738673E+00 -3.36383658E+00  2.53107747E+00 -1.39947264E+00
  4.66490880E-01  1.29250774E+01 -2.73152277E+00 -2.62401120E+00 -1.51245090E+00
 -1.01862657E+00 -1.08805353E+01 -8.81594874E+00 -2.15023140E+00  7.05203010E-01
  1.71289620E+00  7.28163108E+00 -1.04049333E+00 -1.20631626E+01 -2.81716758E+00
  6.42882744E+00 -1.74934080E+00  1.03976444E+01 -3.32192529E+00 -1.10263137E+01
 -9.89288667E+00  2.31969879E+00 -1.95525279E+00 -1.72200735E+00 -1.72200735E+00
 -2.60578890E+00 -2.60578890E+00  1.45049508E+00 -1.15893828E+01  2.86636779E+00
  2.86636779E+00  1.90969704E+00  1.90969704E+00 -1.24531198E+01  1.53249543E+00
  2.66045580E+00  2.73334500E+00  1.22149544E+00  1.22149544E+00  1.22149544E+00
  2.64223350E+00  1.27920546E+00  1.27920546E+00  1.31565006E+00  1.31565006E+00
  1.34298351E+00  1.34298351E+00  2.80623420E+00  3.11601330E+00  5.93135865E+00
  1.41587271E+00  1.41587271E+00  2.93379030E+00  2.93379030E+00  2.46001050E+00
  2.46001050E+00  1.47509519E+00  1.47509519E+00  1.47509519E+00  1.47509519E+00
  1.98076401E+00  1.98076401E+00  1.98076401E+00  1.98076401E+00  8.12350134E+00
  1.91394284E+00  1.91394284E+00  1.91394284E+00
%FLAG ATOMIC_NUMBER                                                             
%FORMAT(10I8)                                                                   
      16       6       6       6       6       6       6       9       6       6
       6       8       7       6       6       6       6       6       7       6
       6       6       6       6       8       7       6       6       6       6
       6       6       6       7       6       6       6       6       7       6
       1       1       1       1       1       1       1       1       1       1
       1       1       1       1       1       1       1       1       1       1
       1       1       1       1       1       1       1       1       1       1
       1       1       1
%FLAG MASS                                                                      
%FORMAT(5E16.8)                                                                 
  3.20600000E+01  1.20100000E+01  1.20100000E+01  1.20100000E+01  1.20100000E+01
  1.20100000E+01  1.20100000E+01  1.90000000E+01  1.20100000E+01  1.20100000E+01
  1.20100000E+01  1.60000000E+01  1.40100000E+01  1.20100000E+01  1.20100000E+01
  1.20100000E+01  1.20100000E+01  1.20100000E+01  1.40100000E+01  1.20100000E+01
  1.20100000E+01  1.20100000E+01  1.20100000E+01  1.20100000E+01  1.60000000E+01
  1.40100000E+01  1.20100000E+01  1.20100000E+01  1.20100000E+01  1.20100000E+01
  1.20100000E+01  1.20100000E+01  1.20100000E+01  1.40100000E+01  1.20100000E+01
  1.20100000E+01  1.20100000E+01  1.20100000E+01  1.40100000E+01  1.20100000E+01
  1.00800000E+00  1.00800000E+00  1.00800000E+00  1.00800000E+00  1.00800000E+00
  1.00800000E+00  1.00800000E+00  1.00800000E+00  1.00800000E+00  1.00800000E+00
  1.00800000E+00  1.00800000E+00  1.00800000E+00  1.00800000E+00  1.00800000E+00
  1.00800000E+00  1.00800000E+00  1.00800000E+00  1.00800000E+00  1.00800000E+00
  1.00800000E+00  1.00800000E+00  1.00800000E+00  1.00800000E+00  1.00800000E+00
  1.00800000E+00  1.00800000E+00  1.00800000E+00  1.00800000E+00  1.00800000E+00
  1.00800000E+00  1.00800000E+00  1.00800000E+00
%FLAG ATOM_TYPE_INDEX                                                           
%FORMAT(10I8)                                                                   
       1       2       2       2       2       2       2       3       2       2
       4       5       6       2       4       4       2       4       7       2
       2       2       2       2       5       8       4       2       2       2
       2       2       2       9       4       4       4       4      10       4
      11      11      12      12      12      11      13      13      13      13
      12      12      11      11      14      13      13      11      11      11
      11      13      13      13      13      15      15      15      15      14
      15      15      15
%FLAG NUMBER_EXCLUDED_ATOMS                                                     
%FORMAT(10I8)                                                                   
      12      12      13       8      12      10      11       3       5       5
       3       3      12       3      11      10      12       9      10      11
       9       6       9       4       3       7      10      12      10       9
       8       7      13      15      12      11      13      12      13       8
       1       1       2       1       1       1       1       1       3       2
       1       1       1       1       2       1       1       1       1       1
       1       3       2       3       2       2       1       2       1       3
       2       1       1
%FLAG NONBONDED_PARM_INDEX                                                      
%FORMAT(10I8)                                                                   
       1       2       4       7      11      16      22      29      37      46
      56      67      79      92     106       2       3       5       8      12
      17      23      30      38      47      57      68      80      93     107
       4       5       6       9      13      18      24      31      39      48
      58      69      81      94     108       7       8       9      10      14
      19      25      32      40      49      59      70      82      95     109
      11      12      13      14      15      20      26      33      41      50
      60      71      83      96     110      16      17      18      19      20
      21      27      34      42      51      61      72      84      97     111
      22      23      24      25      26      27      28      35      43      52
      62      73      85      98     112      29      30      31      32      33
      34      35      36      44      53      63      74      86      99     113
      37      38      39      40      41      42      43      44      45      54
      64      75      87     100     114      46      47      48      49      50
      51      52      53      54      55      65      76      88     101     115
      56      57      58      59      60      61      62      63      64      65
      66      77      89     102     116      67      68      69      70      71
      72      73      74      75      76      77      78      90     103     117
      79      80      81      82      83      84      85      86      87      88
      89      90      91     104     118      92      93      94      95      96
      97      98      99     100     101     102     103     104     105     119
     106     107     108     109     110     111     112     113     114     115
     116     117     118     119     120
%FLAG RESIDUE_LABEL                                                             
%FORMAT(20a4)                                                                   
MOL 
%FLAG RESIDUE_POINTER                                                           
%FORMAT(10I8)                                                                   
       1
%FLAG BOND_FORCE_CONSTANT                                                       
%FORMAT(5E16.8)                                                                 
  2.13480000E+02  2.31660000E+02  3.54250000E+02  3.86240000E+02  2.81780000E+02
  3.35440000E+02  2.88790000E+02  2.53870000E+02  5.90600000E+02  3.17460000E+02
  3.60690000E+02  3.45250000E+02  2.52360000E+02  2.39730000E+02  3.42020000E+02
  2.26810000E+02  3.86490000E+02  3.42750000E+02  2.62840000E+02  3.36070000E+02
  2.61660000E+02  4.73590000E+02  2.43910000E+02  3.44220000E+02  3.10840000E+02
  2.52920000E+02  2.16590000E+02  3.49850000E+02  2.19760000E+02  4.31010000E+02
  3.52860000E+02
%FLAG BOND_EQUIL_VALUE                                                          
%FORMAT(5E16.8)                                                                 
  1.78470000E+00  1.75380000E+00  1.39860000E+00  1.37300000E+00  1.46870000E+00
  1.35020000E+00  1.46100000E+00  1.50180000E+00  1.21900000E+00  1.39670000E+00
  1.08600000E+00  1.09620000E+00  1.46690000E+00  1.52030000E+00  1.09840000E+00
  1.53840000E+00  1.33920000E+00  1.09790000E+00  1.49070000E+00  1.37980000E+00
  1.45560000E+00  1.01320000E+00  1.51470000E+00  1.09690000E+00  1.40300000E+00
  1.46620000E+00  1.51560000E+00  1.09310000E+00  1.51090000E+00  1.03380000E+00
  1.09110000E+00
%FLAG ANGLE_FORCE_CONSTANT                                                      
%FORMAT(5E16.8)                                                                 
  6.30900000E+01  6.66200000E+01  6.28900000E+01  1.01980000E+02  8.05500000E+01
  6.36700000E+01  6.20200000E+01  6.16400000E+01  6.00600000E+01  7.83600000E+01
  6.80100000E+01  4.49000000E+01  5.86200000E+01  6.22000000E+01  4.39500000E+01
  7.66300000E+01  8.66800000E+01  6.55100000E+01  4.80600000E+01  6.52900000E+01
  7.69600000E+01  6.68100000E+01  6.06600000E+01  6.02800000E+01  4.32300000E+01
  4.38000000E+01  8.31500000E+01  4.32800000E+01  6.81700000E+01  6.70900000E+01
  4.36900000E+01  7.79600000E+01  6.70600000E+01  6.14400000E+01  7.69000000E+01
  5.73700000E+01  8.72100000E+01  6.58400000E+01  4.83900000E+01  5.46200000E+01
  6.07400000E+01  4.38100000E+01  6.71800000E+01  7.72200000E+01  6.55700000E+01
  4.79000000E+01  7.75900000E+01  6.43500000E+01  4.29100000E+01  7.55500000E+01
  7.50600000E+01  5.49800000E+01  4.71000000E+01  4.68800000E+01  5.52900000E+01
  3.58000000E+01  3.57700000E+01  3.59300000E+01  3.56400000E+01  3.57700000E+01
  3.56300000E+01
%FLAG ANGLE_EQUIL_VALUE                                                         
%FORMAT(5E16.8)                                                                 
  2.09544320E+00  1.94691562E+00  2.11568903E+00  1.55404183E+00  2.07624457E+00
  2.09474507E+00  2.10888224E+00  2.16927066E+00  2.21098404E+00  2.16525640E+00
  1.96681238E+00  2.09230160E+00  2.20138473E+00  2.11743436E+00  1.93068405E+00
  2.10259905E+00  2.13925098E+00  1.95284974E+00  1.89403212E+00  1.94028336E+00
  1.99089793E+00  2.01917228E+00  2.10486798E+00  1.95424600E+00  1.91026369E+00
  1.90118797E+00  2.04622489E+00  1.90555129E+00  2.14570870E+00  2.05390434E+00
  1.91061275E+00  2.13977458E+00  2.00870030E+00  2.10015559E+00  2.12860447E+00
  2.04657396E+00  2.14762857E+00  1.95511867E+00  1.89350852E+00  2.04936649E+00
  2.10888224E+00  1.91288168E+00  2.11411823E+00  2.06350366E+00  1.92474992E+00
  1.90799476E+00  1.96052919E+00  1.93836350E+00  1.94045789E+00  1.93539644E+00
  1.96663784E+00  1.86994656E+00  1.86488511E+00  1.89350852E+00  1.86017271E+00
  1.88024401E+00  1.87622975E+00  1.86087085E+00  1.89455572E+00  1.89420665E+00
  1.91619781E+00
%FLAG DIHEDRAL_FORCE_CONSTANT                                                   
%FORMAT(5E16.8)                                                                 
  3.62500000E+00  4.00000000E+00  2.87500000E+00  1.21500000E+00  1.61000000E+00
  3.77000000E+00  6.00000000E-01  8.95000000E-01  0.00000000E+00  2.50000000E+00
  0.00000000E+00  0.00000000E+00  1.02000000E+00  1.70000000E-01  1.00000000E-01
  2.10000000E-01  1.55555556E-01  4.80000000E+00  2.40000000E-01  0.00000000E+00
  1.00000000E+00  3.00000000E+00  2.00000000E+00  5.00000000E-01  5.80000000E-01
  2.12250000E+00  2.00000000E+00  7.53000000E-01  3.32000000E-01  1.56000000E-01
  1.09000000E-01  1.05000000E+01  1.10000000E+00
%FLAG DIHEDRAL_PERIODICITY                                                      
%FORMAT(5E16.8)                                                                 
  2.00000000E+00  2.00000000E+00  2.00000000E+00  2.00000000E+00  3.00000000E+00
  2.00000000E+00  2.00000000E+00  2.00000000E+00  3.00000000E+00  2.00000000E+00
  2.00000000E+00  2.00000000E+00  1.00000000E+00  3.00000000E+00  4.00000000E+00
  3.00000000E+00  3.00000000E+00  2.00000000E+00  2.00000000E+00  1.00000000E+00
  2.00000000E+00  1.00000000E+00  2.00000000E+00  3.00000000E+00  2.00000000E+00
  2.00000000E+00  1.00000000E+00  2.00000000E+00  2.00000000E+00  3.00000000E+00
  3.00000000E+00  2.00000000E+00  2.00000000E+00
%FLAG DIHEDRAL_PHASE                                                            
%FORMAT(5E16.8)                                                                 
  3.14159400E+00  3.14159400E+00  3.14159400E+00  0.00000000E+00  3.14159400E+00
  3.14159400E+00  3.14159400E+00  3.14159400E+00  0.00000000E+00  3.14159400E+00
  0.00000000E+00  3.14159400E+00  3.14159400E+00  0.00000000E+00  3.14159400E+00
  0.00000000E+00  0.00000000E+00  3.14159400E+00  3.14159400E+00  0.00000000E+00
  3.14159400E+00  3.14159400E+00  3.14159400E+00  0.00000000E+00  3.14159400E+00
  3.14159400E+00  0.00000000E+00  3.14159400E+00  0.00000000E+00  0.00000000E+00
  0.00000000E+00  3.14159400E+00  3.14159400E+00
%FLAG SCEE_SCALE_FACTOR                                                         
%FORMAT(5E16.8)                                                                 
  1.20000000E+00  1.20000000E+00  1.20000000E+00  1.20000000E+00  1.20000000E+00
  1.20000000E+00  1.20000000E+00  1.20000000E+00  1.20000000E+00  1.20000000E+00
  1.20000000E+00  1.20000000E+00  1.20000000E+00  1.20000000E+00  1.20000000E+00
  1.20000000E+00  1.20000000E+00  1.20000000E+00  1.20000000E+00  1.20000000E+00
  1.20000000E+00  1.20000000E+00  1.20000000E+00  1.20000000E+00  1.20000000E+00
  1.20000000E+00  1.20000000E+00  1.20000000E+00  1.20000000E+00  1.20000000E+00
  1.20000000E+00  0.00000000E+00  0.00000000E+00
%FLAG SCNB_SCALE_FACTOR                                                         
%FORMAT(5E16.8)                                                                 
  2.00000000E+00  2.00000000E+00  2.00000000E+00  2.00000000E+00  2.00000000E+00
  2.00000000E+00  2.00000000E+00  2.00000000E+00  2.00000000E+00  2.00000000E+00
  2.00000000E+00  2.00000000E+00  2.00000000E+00  2.00000000E+00  2.00000000E+00
  2.00000000E+00  2.00000000E+00  2.00000000E+00  2.00000000E+00  2.00000000E+00
  2.00000000E+00  2.00000000E+00  2.00000000E+00  2.00000000E+00  2.00000000E+00
  2.00000000E+00  2.00000000E+00  2.00000000E+00  2.00000000E+00  2.00000000E+00
  2.00000000E+00  0.00000000E+00  0.00000000E+00
%FLAG SOLTY                                                                     
%FORMAT(5E16.8)                                                                 
  0.00000000E+00  0.00000000E+00  0.00000000E+00  0.00000000E+00  0.00000000E+00
  0.00000000E+00  0.00000000E+00  0.00000000E+00  0.00000000E+00  0.00000000E+00
  0.00000000E+00  0.00000000E+00  0.00000000E+00  0.00000000E+00  0.00000000E+00
  0.00000000E+00  0.00000000E+00  0.00000000E+00  0.00000000E+00
%FLAG LENNARD_JONES_ACOEF                                                       
%FORMAT(5E16.8)                                                                 
  4.26366419E+06  1.73376823E+06  6.96551276E+05  9.62298009E+05  3.80155513E+05
  2.02652992E+05  2.09089895E+06  8.43969952E+05  4.63627012E+05  1.02073671E+06
  1.30884564E+06  5.17507491E+05  2.76207447E+05  6.30925504E+05  3.76435470E+05
  1.75889445E+06  7.01106848E+05  3.78460396E+05  8.52084164E+05  5.15491878E+05
  7.02078680E+05  1.90820499E+06  7.69642101E+05  4.22347898E+05  9.31115275E+05
  5.74782316E+05  7.76656876E+05  8.49322032E+05  1.74537186E+06  6.99381362E+05
  3.80309307E+05  8.48258258E+05  5.17814271E+05  7.02755693E+05  7.73425391E+05
  7.01825028E+05  2.04935397E+06  8.17329084E+05  4.41532129E+05  9.93125065E+05
  6.01376873E+05  8.18751801E+05  9.05243612E+05  8.19347611E+05  9.54790629E+05
  2.29022351E+06  8.78080588E+05  4.48827718E+05  1.08339010E+06  6.13063863E+05
  8.57202189E+05  9.85071815E+05  8.72740728E+05  1.00141202E+06  9.21656095E+05
  1.95762765E+05  7.52549148E+04  3.86097375E+04  9.27554496E+04  5.27277400E+04
  7.35931098E+04  8.43518904E+04  7.48403283E+04  8.59636060E+04  7.98194249E+04
  6.90855956E+03  2.11783234E+05  8.12662403E+04  4.15877422E+04  1.00235148E+05
  5.68021765E+04  7.93773615E+04  9.11435380E+04  8.07866982E+04  9.27277603E+04
  8.55808446E+04  7.41026906E+03  7.94617769E+03  1.48672098E+05  5.63013422E+04
  2.82810778E+04  6.97998263E+04  3.86646725E+04  5.45183252E+04  6.34160397E+04
  5.58085097E+04  6.37258620E+04  5.62691404E+04  4.88692384E+03  5.22955465E+03
  3.39005767E+03  5.15374979E+03  1.71458823E+03  7.15600927E+02  2.23577481E+03
  9.87857350E+02  1.52360475E+03  2.01475241E+03  1.65195713E+03  1.79157166E+03
  1.00942006E+03  9.04434904E+01  9.47421632E+01  5.24570081E+01  1.34728399E-01
  4.80874647E+04  1.74110867E+04  8.20643968E+03  2.19657590E+04  1.12566992E+04
  1.63679607E+04  1.99003866E+04  1.70902479E+04  1.91715719E+04  1.45326307E+04
  1.27542632E+03  1.35510742E+03  8.33358592E+02  7.30589786E+00  1.70079100E+02
%FLAG LENNARD_JONES_BCOEF                                                       
%FORMAT(5E16.8)                                                                 
  2.19459223E+03  1.07629402E+03  5.24668528E+02  7.68124812E+02  3.71304925E+02
  2.59697739E+02  1.20800124E+03  5.90251928E+02  4.19082844E+02  6.63431737E+02
  1.03157656E+03  4.98871431E+02  3.49131956E+02  5.62969425E+02  4.69350655E+02
  1.22973599E+03  5.97113873E+02  4.20258854E+02  6.72777963E+02  5.64804067E+02
  6.77820248E+02  1.11546536E+03  5.44830041E+02  3.86628088E+02  6.12468585E+02
  5.19385932E+02  6.20851625E+02  5.65406768E+02  1.12747567E+03  5.48900066E+02
  3.87745109E+02  6.17825399E+02  5.21008860E+02  6.24158704E+02  5.70234696E+02
  5.74088001E+02  1.42122969E+03  6.90283231E+02  4.86017154E+02  7.77671659E+02
  6.53166727E+02  7.83721154E+02  7.17661669E+02  7.21590374E+02  9.06156687E+02
  2.78689013E+03  1.32715352E+03  9.08940399E+02  1.50664821E+03  1.22328790E+03
  1.48748365E+03  1.38866053E+03  1.38141570E+03  1.72139587E+03  3.06326052E+03
  2.29782888E+02  1.09570372E+02  7.51823196E+01  1.24325688E+02  1.01173582E+02
  1.22913863E+02  1.14599119E+02  1.14083104E+02  1.42233990E+02  2.54229244E+02
  2.10929191E+01  2.54804909E+02  1.21392023E+02  8.31877412E+01  1.37787728E+02
  1.11953944E+02  1.36094315E+02  1.27000718E+02  1.26366740E+02  1.57492664E+02
  2.80652463E+02  2.32899892E+01  2.57122925E+01  2.13489607E+02  1.01040256E+02
  6.86000827E+01  1.14981426E+02  9.23664132E+01  1.12788003E+02  1.05935811E+02
  1.05029928E+02  1.30560951E+02  2.27570369E+02  1.89134207E+01  2.08590256E+01
  1.67944276E+01  3.30984635E+01  1.46824710E+01  9.08649254E+00  1.71355763E+01
  1.22938581E+01  1.57004457E+01  1.57231024E+01  1.50468782E+01  1.82287422E+01
  2.53805311E+01  2.14252117E+00  2.33785449E+00  1.73959275E+00  7.34107347E-02
  1.21416565E+02  5.61885732E+01  3.69533701E+01  6.45020662E+01  4.98382106E+01
  6.18000664E+01  5.93436142E+01  5.81215296E+01  7.16117531E+01  1.15651879E+02
  9.66228818E+00  1.06181419E+01  8.32679019E+00  6.49206153E-01  3.76172582E+00
%FLAG BONDS_INC_HYDROGEN                                                        
%FORMAT(10I8)                                                                   
      24     120      11      27     123      11      30     126      12      30
     129      12      30     132      12      39     135      11      42     138
      15      42     141      15      45     144      15      45     147      15
      51     150      18      51     153      18      63     156      11      69
     159      11      75     162      22      78     165      24      78     168
      24      84     171      11      87     174      11      90     177      11
      93     180      11     102     183      15     102     186      15     105
     189      15     105     192      15     108     195      28     108     198
      28     111     201      28     111     204      28     114     207      30
     117     210      31     117     213      31     117     216      31
%FLAG BONDS_WITHOUT_HYDROGEN                                                    
%FORMAT(10I8)                                                                   
       0       3       1       0       6       2       3       9       3       3
      12       3       6      15       4       6      18       5       9      21
       6       9      24       3      12      27       3      12      15       7
      15      30       8      18      33       9      18      36      10      24
      39       3      27      39       3      36      42      13      36      45
      13      42      48      14      45      51      16      48      54      17
      48      57       3      51      57      14      54      60      17      57
      63       3      60      66      19      60      69       3      63      69
       3      66      72       9      66      75      20      75      78      21
      78      81      23      81      84       3      81      87       3      84
      90       3      87      93       3      90      96       3      93      96
       3      96      99      25      99     102      26      99     105      26
     102     108      16     105     111      16     108     114      27     111
     114      27     114     117      29
%FLAG ANGLES_INC_HYDROGEN                                                       
%FORMAT(10I8)                                                                   
       9      24     120      12      12      27     123      12      15      30
     126      15      15      30     129      15      15      30     132      15
      24      39     135      12      27      39     135      12      36      42
     138      19      36      42     141      19      36      45     144      19
      36      45     147      19      39      24     120      12      39      27
     123      12      45      51     150      25      45      51     153      25
      48      42     138      26      48      42     141      26      51      45
     144      28      51      45     147      28      57      51     150      31
      57      51     153      31      57      63     156      12      60      69
     159      12      63      69     159      12      66      75     162      36
      69      63     156      12      75      78     165      39      75      78
     168      39      78      75     162      40      81      78     165      42
      81      78     168      42      81      84     171      12      81      87
     174      12      84      90     177      12      87      93     180      12
      90      84     171      12      93      87     174      12      96      90
     177      12      96      93     180      12      99     102     183      46
      99     102     186      46      99     105     189      46      99     105
     192      46     102     108     195      49     102     108     198      49
     105     111     201      49     105     111     204      49     108     102
     183      28     108     102     186      28     108     114     207      52
     111     105     189      28     111     105     192      28     111     114
     207      52     114     108     195      53     114     108     198      53
     114     111     201      53     114     111     204      53     114     117
     210      54     114     117     213      54     114     117     216      54
     117     114     207      55     126      30     129      56     126      30
     132      56     129      30     132      56     138      42     141      57
     144      45     147      57     150      51     153      58     165      78
     168      59     183     102     186      57     189     105     192      57
     195     108     198      60     201     111     204      60     210     117
     213      61     210     117     216      61     213     117     216      61
%FLAG ANGLES_WITHOUT_HYDROGEN                                                   
%FORMAT(10I8)                                                                   
       0       3       9       1       0       3      12       1       0       6
      15       2       0       6      18       3       3       0       6       4
       3       9      21       5       3       9      24       6       3      12
      27       6       3      12      15       7       6      15      12       8
       6      15      30       9       6      18      33      10       6      18
      36      11       9       3      12       6       9      24      39       6
      12      27      39       6      12      15      30      13      15       6
      18      14      15      12      27       7      18      36      42      16
      18      36      45      16      21       9      24       5      24      39
      27       6      33      18      36      17      36      42      48      18
      36      45      51      20      42      36      45      21      42      48
      54      22      42      48      57      23      45      51      57      24
      48      54      60      27      48      57      51      23      48      57
      63       6      51      57      63      23      54      48      57      29
      54      60      66      30      54      60      69      29      57      63
      69       6      60      66      72      32      60      66      75      33
      60      69      63       6      66      60      69      34      66      75
      78      35      72      66      75      37      75      78      81      38
      78      81      84      41      78      81      87      41      81      84
      90       6      81      87      93       6      84      81      87       6
      84      90      96       6      87      93      96       6      90      96
      93       6      90      96      99      43      93      96      99      43
      96      99     102      44      96      99     105      44      99     102
     108      45      99     105     111      45     102      99     105      47
     102     108     114      48     105     111     114      48     108     114
     111      50     108     114     117      51     111     114     117      51
%FLAG DIHEDRALS_INC_HYDROGEN                                                    
%FORMAT(10I8)                                                                   
       3       9      24     120       1       3      12      27     123       1
       6      15      30     126       9       6      15      30     129       9
       6      15      30     132       9       9      24      39     135       1
      12      27      39     135       1      12      15      30     126       9
      12      15      30     129       9      12      15      30     132       9
      15      12      27     123       1      18      36      42     138      12
      18      36      42     141      12      18      36      45     144      12
      18      36      45     147      12      21       9      24     120       1
      24      39      27     123       1      27      39      24     120       1
      36      45      51     150      17      36      45      51     153      17
      42      36      45     144      11      42      36      45     147      11
      45      36      42     138      11      45      36      42     141      11
      48      57      51     150      20      48      57      51     153      20
      48      57      63     156       1      51      57      63     156       1
      54      48      42     138      11      54      48      42     141      11
      54      60      69     159       1      57      48      42     138      11
      57      48      42     141      11      57      51      45     144      17
      57      51      45     147      17      57      63      69     159       1
      60      66      75     162      10      60      69      63     156       1
      63      57      51     150      20      63      57      51     153      20
      66      60      69     159       1      66      75      78     165      20
      66      75      78     168      20      72      66      75     162      27
      72      66     -75     162      10      78      81      84     171       1
      78      81      87     174       1      81      78      75     162      11
      81      84      90     177       1      81      87      93     180       1
      84      81      78     165      11      84      81      78     168      11
      84      81      87     174       1      87      81      78     165      11
      87      81      78     168      11      87      81      84     171       1
      90      96      93     180       1      93      96      90     177       1
      96      90      84     171       1      96      93      87     174       1
      96      99     102     183      29      96      99     102     186      29
      96      99     105     189      29      96      99     105     192      29
      99      96      90     177       1      99      96      93     180       1
      99     102     108     195      17      99     102     108     198      17
      99     105     111     201      17      99     105     111     204      17
     102      99     105     189      11     102      99     105     192      11
     102     108     114     207      17     105      99     102     183      11
     105      99     102     186      11     105     111     114     207      17
     108     114     111     201      17     108     114     111     204      17
     108     114     117     210      17     108     114     117     213      17
     108     114     117     216      17     111     114     108     195      17
     111     114     108     198      17     111     114     117     210      17
     111     114     117     213      17     111     114     117     216      17
     114     108     102     183      17     114     108     102     186      17
     114     111     105     189      17     114     111     105     192      17
     117     114     108     195      17     117     114     108     198      17
     117     114     111     201      17     117     114     111     204      17
     120      24      39     135       1     123      27      39     135       1
     144      45      51     150      17     144      45      51     153      17
     147      45      51     150      17     147      45      51     153      17
     156      63      69     159       1     162      75      78     165      11
     162      75      78     168      11     171      84      90     177       1
     174      87      93     180       1     183     102     108     195      17
     183     102     108     198      17     186     102     108     195      17
     186     102     108     198      17     189     105     111     201      17
     189     105     111     204      17     192     105     111     201      17
     192     105     111     204      17     195     108     114     207      31
     198     108     114     207      31     201     111     114     207      31
     204     111     114     207      31     207     114     117     210      31
     207     114     117     213      31     207     114     117     216      31
       9      39     -24    -120      33      12      39     -27    -123      33
      24      27     -39    -135      33      57      69     -63    -156      33
      60      63     -69    -159      33      66      78     -75    -162      33
      81      90     -84    -171      33      81      93     -87    -174      33
      84      96     -90    -177      33      87      96     -93    -180      33
%FLAG DIHEDRALS_WITHOUT_HYDROGEN                                                
%FORMAT(10I8)                                                                   
       0       3       9      21       1       0       3       9      24       1
       0       3      12      27       1       0       3     -12      15       1
       0       6     -15      12       2       0       6      15      30       2
       0       6      18      33       3       0       6      18      36       3
       3       0      -6      15       4       3       0       6      18       5
       3       9      24      39       1       3      12     -27      39       1
       3      12     -15       6       6       3      12      15      30       7
       6       0       3       9       8       6       0      -3      12       8
       6      15      12      27       6       6      18      36      42      10
       6      18      36      45      10       9       3      12      27       1
       9       3      12      15       1       9      24     -39      27       1
      12       3       9      21       1      12       3       9      24       1
      12      27     -39      24       1      12      15       6      18       2
      15       6      18      33       3      15       6      18      36       3
      15      12      27      39       1      18       6      15      30       2
      18      36      42      48      11      18      36      45      51      13
      18      36     -45      51      14      18      36     -45      51      15
      21       9      24      39       1      27      12      15      30       7
      33      18      36      42      10      33      18      36      45      10
      36      42      48      54      11      36      42      48      57      11
      36      45     -51      57      16      42      36      45      51      11
      42      48      54      60      18      42      48     -57      51       1
      42      48      57      63       1      45      36      42      48      11
      45      51     -57      48      19      45      51      57      63      19
      48      54      60      66      18      48      54      60      69      18
      48      57     -63      69       1      51      57      48      54       1
      51      57      63      69       1      54      48      57      63       1
      54      60      66      72      21      54      60      66      75      21
      54      60     -69      63       1      57      48      54      60      18
      57      63     -69      60       1      60      66      75      78      22
      60      66     -75      78      23      60      66     -75      78      24
      63      69      60      66       1      66      75      78      81      11
      69      60      66      72      25      69      60      66      75      26
      72      66      75      78      10      75      78      81      84      11
      75      78      81      87      11      78      81      84      90       1
      78      81      87      93       1      81      84      90      96       1
      81      87     -93      96       1      84      81      87      93       1
      84      90     -96      93       1      84      90      96      99       1
      87      81      84      90       1      87      93     -96      90       1
      87      93      96      99       1      90      96      99     102      28
      90      96      99     105      28      93      96      99     102      28
      93      96      99     105      28      96      99     102     108      11
      96      99     105     111      11      99     102     108     114      17
      99     105    -111     114      17     102      99     105     111      11
     102     108    -114     111      30     102     108     114     117      30
     105      99     102     108      11     105     111    -114     108      30
     105     111     114     117      30       0       3     -12      -9      32
       0       6     -15     -18      32       3      24      -9     -21      33
       3      27     -12     -15      33      30      12     -15      -6      32
       6      36     -18     -33      32      18      42     -36     -45      33
      42      57     -48     -54      32      51      48     -57     -63      32
      66      69     -60     -54      32      60      75     -66     -72      32
      84      87     -81     -78      33      90      93     -96     -99      32
     102     105     -99     -96      33
%FLAG EXCLUDED_ATOMS_LIST                                                       
%FORMAT(10I8)                                                                   
       2       3       4       5       6       7       8       9      10      11
      12      13       3       4       5       6       7       8       9      10
      11      14      41      42       4       5       6       7      10      11
      12      13      15      16      43      44      45       5       6       8
       9      10      14      41      46       6       7       8       9      10
      11      14      42      43      44      45      46       7      10      11
      12      13      14      42      43      44      45      11      12      13
      15      16      17      18      47      48      49      50       9      14
      41      10      14      41      42      46      11      14      41      42
      46      43      44      45      13      15      16      15      16      17
      18      19      20      47      48      49      50      51      52      41
      42      46      16      17      18      19      20      21      22      47
      48      49      50      17      18      20      22      47      48      49
      50      51      52      18      19      20      21      22      23      24
      47      48      51      52      53      19      20      22      24      49
      50      51      52      53      20      21      22      23      24      25
      26      47      48      54      21      22      24      47      48      49
      50      51      52      53      54      22      23      24      25      26
      27      53      54      55      23      24      51      52      53      54
      24      25      26      27      28      54      55      56      57      25
      26      53      54      26      27      55      27      28      29      30
      55      56      57      28      29      30      31      32      55      56
      57      58      59      29      30      31      32      33      55      56
      57      58      59      60      61      30      31      32      33      34
      56      57      58      59      60      31      32      33      34      56
      57      58      59      61      32      33      34      35      36      58
      60      61      33      34      35      36      59      60      61      34
      35      36      37      38      58      59      60      61      62      63
      64      65      35      36      37      38      39      60      61      62
      63      64      65      66      67      68      69      36      37      38
      39      40      62      63      64      65      66      67      70      37
      38      39      40      62      63      64      65      68      69      70
      38      39      40      62      63      66      67      68      69      70
      71      72      73      39      40      64      65      66      67      68
      69      70      71      72      73      40      62      63      64      65
      66      67      68      69      70      71      72      73      66      67
      68      69      70      71      72      73      46      46      44      45
      45       0       0      48       0      50      51      52      51      52
      52       0      54       0      56      57      57       0      60      61
       0       0      63      66      67      66      67      65      68      69
      68      69      67      70      70      69      70      70      71      72
      73      72      73      73       0
%FLAG HBOND_ACOEF                                                               
%FORMAT(5E16.8)                                                                 

%FLAG HBOND_BCOEF                                                               
%FORMAT(5E16.8)                                                                 

%FLAG HBCUT                                                                     
%FORMAT(5E16.8)                                                                 

%FLAG AMBER_ATOM_TYPE                                                           
%FORMAT(20a4)                                                                   
ss  ca  cc  ca  ca  cd  c   f   ca  ca  c3  o   n   ca  c6  c6  ca  c6  nb  ca  
ca  ca  c   ca  o   ns  c3  ca  ca  ca  ca  ca  ca  nh  c6  c6  c6  c6  nx  c3  
ha  ha  hc  hc  hc  ha  h1  h1  h1  h1  hc  hc  ha  ha  hn  h1  h1  ha  ha  ha  
ha  h1  h1  h1  h1  hx  hx  hx  hx  hn  hx  hx  hx  
%FLAG TREE_CHAIN_CLASSIFICATION                                                 
%FORMAT(20a4)                                                                   
BLA BLA BLA BLA BLA BLA BLA BLA BLA BLA BLA BLA BLA BLA BLA BLA BLA BLA BLA BLA 
BLA BLA BLA BLA BLA BLA BLA BLA BLA BLA BLA BLA BLA BLA BLA BLA BLA BLA BLA BLA 
BLA BLA BLA BLA BLA BLA BLA BLA BLA BLA BLA BLA BLA BLA BLA BLA BLA BLA BLA BLA 
BLA BLA BLA BLA BLA BLA BLA BLA BLA BLA BLA BLA BLA 
%FLAG JOIN_ARRAY                                                                
%FORMAT(10I8)                                                                   
       0       0       0       0       0       0       0       0       0       0
       0       0       0       0       0       0       0       0       0       0
       0       0       0       0       0       0       0       0       0       0
       0       0       0       0       0       0       0       0       0       0
       0       0       0       0       0       0       0       0       0       0
       0       0       0       0       0       0       0       0       0       0
       0       0       0       0       0       0       0       0       0       0
       0       0       0
%FLAG IROTAT                                                                    
%FORMAT(10I8)                                                                   
       0       0       0       0       0       0       0       0       0       0
       0       0       0       0       0       0       0       0       0       0
       0       0       0       0       0       0       0       0       0       0
       0       0       0       0       0       0       0       0       0       0
       0       0       0       0       0       0       0       0       0       0
       0       0       0       0       0       0       0       0       0       0
       0       0       0       0       0       0       0       0       0       0
       0       0       0
%FLAG RADIUS_SET                                                                
%FORMAT(1a80)                                                                   
modified Bondi radii (mbondi)                                                   
%FLAG RADII                                                                     
%FORMAT(5E16.8)                                                                 
  1.80000000E+00  1.70000000E+00  1.70000000E+00  1.70000000E+00  1.70000000E+00
  1.70000000E+00  1.70000000E+00  1.50000000E+00  1.70000000E+00  1.70000000E+00
  1.70000000E+00  1.50000000E+00  1.55000000E+00  1.70000000E+00  1.70000000E+00
  1.70000000E+00  1.70000000E+00  1.70000000E+00  1.55000000E+00  1.70000000E+00
  1.70000000E+00  1.70000000E+00  1.70000000E+00  1.70000000E+00  1.50000000E+00
  1.55000000E+00  1.70000000E+00  1.70000000E+00  1.70000000E+00  1.70000000E+00
  1.70000000E+00  1.70000000E+00  1.70000000E+00  1.55000000E+00  1.70000000E+00
  1.70000000E+00  1.70000000E+00  1.70000000E+00  1.55000000E+00  1.70000000E+00
  1.30000000E+00  1.30000000E+00  1.30000000E+00  1.30000000E+00  1.30000000E+00
  1.30000000E+00  1.30000000E+00  1.30000000E+00  1.30000000E+00  1.30000000E+00
  1.30000000E+00  1.30000000E+00  1.30000000E+00  1.30000000E+00  1.30000000E+00
  1.30000000E+00  1.30000000E+00  1.30000000E+00  1.30000000E+00  1.30000000E+00
  1.30000000E+00  1.30000000E+00  1.30000000E+00  1.30000000E+00  1.30000000E+00
  1.30000000E+00  1.30000000E+00  1.30000000E+00  1.30000000E+00  1.30000000E+00
  1.30000000E+00  1.30000000E+00  1.30000000E+00
%FLAG SCREEN                                                                    
%FORMAT(5E16.8)                                                                 
  9.60000000E-01  7.20000000E-01  7.20000000E-01  7.20000000E-01  7.20000000E-01
  7.20000000E-01  7.20000000E-01  8.80000000E-01  7.20000000E-01  7.20000000E-01
  7.20000000E-01  8.50000000E-01  7.90000000E-01  7.20000000E-01  7.20000000E-01
  7.20000000E-01  7.20000000E-01  7.20000000E-01  7.90000000E-01  7.20000000E-01
  7.20000000E-01  7.20000000E-01  7.20000000E-01  7.20000000E-01  8.50000000E-01
  7.90000000E-01  7.20000000E-01  7.20000000E-01  7.20000000E-01  7.20000000E-01
  7.20000000E-01  7.20000000E-01  7.20000000E-01  7.90000000E-01  7.20000000E-01
  7.20000000E-01  7.20000000E-01  7.20000000E-01  7.90000000E-01  7.20000000E-01
  8.50000000E-01  8.50000000E-01  8.50000000E-01  8.50000000E-01  8.50000000E-01
  8.50000000E-01  8.50000000E-01  8.50000000E-01  8.50000000E-01  8.50000000E-01
  8.50000000E-01  8.50000000E-01  8.50000000E-01  8.50000000E-01  8.50000000E-01
  8.50000000E-01  8.50000000E-01  8.50000000E-01  8.50000000E-01  8.50000000E-01
  8.50000000E-01  8.50000000E-01  8.50000000E-01  8.50000000E-01  8.50000000E-01
  8.50000000E-01  8.50000000E-01  8.50000000E-01  8.50000000E-01  8.50000000E-01
  8.50000000E-01  8.50000000E-01  8.50000000E-01
%FLAG IPOL                                                                      
%FORMAT(1I8)                                                                    
       0
