MOL
    80
   2.4500000   1.1450000   0.1090000   2.4450000  -0.0350000  -0.2230000
   1.7140000  -0.4980000  -1.3110000   3.2330000  -1.0670000   0.5560000
   0.8710000   0.3720000  -2.1100000   4.3060000  -0.6210000   1.2610000
   2.8150000  -2.3900000   0.5830000  -0.5490000  -0.1380000  -2.1630000
   5.0010000  -1.5080000   2.0300000   3.5260000  -3.3080000   1.3650000
  -1.2940000  -0.2690000  -0.9880000  -1.1780000  -0.4370000  -3.3780000
   4.6590000  -2.8740000   2.0950000   6.2090000  -0.9470000   2.7950000
   3.0340000  -4.6520000   1.4170000  -2.6240000  -0.7030000  -1.0310000
  -2.5180000  -0.8600000  -3.4110000   5.4980000  -3.8140000   2.9340000
   6.7800000  -1.8910000   3.7530000   3.2460000  -5.4530000   2.4910000
   2.2690000  -5.2980000   0.4740000  -3.2690000  -1.0070000  -2.2400000
   6.8720000  -3.2620000   3.2950000   7.3900000  -1.4520000   4.9340000
   2.5480000  -6.5540000   2.2350000   1.9340000  -6.5270000   0.9800000
  -4.6090000  -1.3590000  -2.2250000   7.8780000  -0.3260000   5.0220000
   7.1700000  -2.3110000   6.1060000  -5.4750000  -1.1570000  -3.3960000
  -5.0190000  -2.5160000  -1.4060000   6.0250000  -3.0770000   6.0450000
   7.4610000  -2.1440000   7.4620000  -6.9390000  -0.9840000  -2.9150000
  -6.4900000  -2.3380000  -0.9600000   5.3380000  -2.7660000   7.1660000
   6.1600000  -2.0710000   8.0430000   8.7470000  -1.9700000   8.1750000
  -7.4200000  -2.1230000  -2.0950000   3.9950000  -3.0280000   7.3630000
   5.5810000  -1.5190000   9.1970000  -8.7700000  -1.8580000  -1.6000000
   3.4250000  -2.4290000   8.4870000   4.1970000  -1.6670000   9.3730000
   1.7690000  -1.4520000  -1.5480000   1.2620000   0.4190000  -3.1050000
   0.8660000   1.3430000  -1.6600000   1.9940000  -2.6920000   0.0360000
  -0.8600000  -0.0430000  -0.0790000  -0.6500000  -0.3460000  -4.2600000
   5.8970000  -0.0720000   3.3260000   6.9680000  -0.7320000   2.0720000
  -3.1460000  -0.8030000  -0.1470000  -2.9580000  -1.0660000  -4.3210000
   5.6340000  -4.7230000   2.3870000   4.9720000  -3.9610000   3.8540000
   1.9970000  -4.9250000  -0.4490000   7.5020000  -3.3010000   2.4310000
   7.2800000  -3.8570000   4.0850000   2.4680000  -7.3450000   2.8930000
   1.3610000  -7.2620000   0.5370000  -5.4070000  -2.0060000  -4.0430000
  -5.1630000  -0.2830000  -3.9300000  -4.3900000  -2.5830000  -0.5430000
  -4.9280000  -3.4120000  -1.9840000  -7.5710000  -0.8920000  -3.7740000
  -6.9710000  -0.1110000  -2.2990000  -6.5480000  -1.4920000  -0.3070000
  -6.7870000  -3.2430000  -0.4710000   9.5570000  -2.0790000   7.4840000
   8.8320000  -2.7100000   8.9440000   8.7820000  -0.9950000   8.6150000
  -7.4490000  -2.9630000  -2.6710000   3.4510000  -3.6270000   6.7220000
   6.1560000  -1.0210000   9.8940000  -8.7610000  -0.9780000  -0.9910000
  -9.1060000  -2.6900000  -1.0170000  -9.4320000  -1.7120000  -2.4280000
   2.4160000  -2.5500000   8.6680000   3.7380000  -1.2030000  10.1730000
