MOL
    58
  11.8540000   5.9840000   3.8060000  11.1220000   5.5980000   2.7240000
  11.7230000   6.1730000   1.6450000  11.3300000   4.2570000   2.5950000
   9.6580000   5.9490000   2.8290000   9.1470000   6.5930000   3.9630000
   8.7830000   5.6260000   1.7820000   7.7880000   6.9120000   4.0450000
   7.4250000   5.9420000   1.8670000   6.9140000   6.5970000   2.9970000
   5.4430000   6.8990000   3.1040000   4.9920000   7.7650000   2.0430000
   3.6910000   7.7410000   1.5940000   2.8430000   6.9470000   2.0020000
   3.3510000   8.7570000   0.5290000   4.3420000   9.6230000   0.1590000
   2.0820000   8.7310000  -0.0250000   4.0520000  10.4930000  -0.8490000
   1.8040000   9.6330000  -1.0410000   2.7920000  10.5290000  -1.4680000
   5.1470000  11.4740000  -1.2760000   2.5120000  11.4320000  -2.6410000
   4.8880000  12.0950000  -2.5740000   3.5280000  12.5590000  -2.7970000
   5.9460000  12.4420000  -3.4210000   7.0710000  12.6650000  -2.9750000
   5.6880000  12.2380000  -4.8560000   4.7190000  11.2870000  -5.1150000
   6.5780000  12.1850000  -5.9330000   5.4040000  10.2950000  -5.7230000
   6.6110000  10.7810000  -6.2070000   7.4670000  13.2260000  -6.5030000
   5.0000000   8.9680000  -5.7600000   7.5190000   9.8680000  -6.7660000
   5.9520000   8.0630000  -6.2290000   7.1910000   8.5030000  -6.7140000
   9.7770000   6.8330000   4.7440000   9.1460000   5.1490000   0.9420000
   7.4260000   7.3840000   4.8880000   6.7920000   5.6910000   1.0910000
   5.2560000   7.3760000   4.0430000   4.9090000   5.9750000   3.0280000
   5.6310000   8.3890000   1.6280000   1.3670000   8.0650000   0.3070000
   0.8710000   9.6440000  -1.4820000   6.0760000  10.9450000  -1.3310000
   5.1750000  12.2580000  -0.5470000   1.5420000  11.8660000  -2.5100000
   2.5710000  10.8300000  -3.5230000   3.3040000  13.3280000  -2.0880000
   3.4630000  12.9290000  -3.7990000   7.1960000  14.1820000  -6.1060000
   7.3630000  13.2390000  -7.5680000   8.4820000  13.0070000  -6.2450000
   4.0580000   8.6700000  -5.4620000   8.3980000  10.1890000  -7.2010000
   5.7410000   7.0530000  -6.2180000   7.8790000   7.8070000  -7.0400000
