MOL
    83
   1.2920000  -0.2060000   0.6510000   2.3080000   0.1490000   0.0560000
   2.8170000  -0.5450000  -1.0190000   3.0600000   1.3710000   0.5080000
   2.2160000  -1.7830000  -1.4740000   4.1580000   1.7800000  -0.1880000
   2.5780000   2.0170000   1.6440000   1.8280000  -1.7320000  -2.9270000
   4.8040000   2.8950000   0.2730000   3.2530000   3.1280000   2.1410000
   2.3310000  -2.6690000  -3.8300000   0.9080000  -0.7870000  -3.3970000
   4.4040000   3.5770000   1.4520000   6.0290000   3.3790000  -0.5350000
   2.7220000   3.7760000   3.3420000   1.9460000  -2.6360000  -5.1740000
   0.5300000  -0.7630000  -4.7490000   5.1770000   4.7950000   1.9130000
   6.4820000   4.7290000  -0.1710000   2.6620000   5.1250000   3.7560000
   2.0720000   3.1030000   4.3680000   1.0470000  -1.6800000  -5.6720000
   6.5480000   4.9650000   1.2640000   6.8310000   5.6750000  -1.1600000
   2.0710000   5.2900000   4.9420000   1.7090000   4.0450000   5.2870000
   0.6600000  -1.7340000  -7.0020000   7.2060000   5.3020000  -2.2720000
   6.5080000   7.0900000  -0.8650000   0.9990000   3.8330000   6.5260000
  -0.5800000  -1.1030000  -7.4730000   1.7030000  -1.7880000  -8.0450000
   5.5080000   7.2510000   0.0780000   6.3700000   8.1880000  -1.7230000
  -1.0980000  -1.8650000  -8.7170000   1.1510000  -2.5400000  -9.2790000
   4.4850000   7.8190000  -0.6040000   4.9540000   8.3410000  -1.7990000
   7.3600000   9.0430000  -2.4190000  -0.0960000  -1.9360000  -9.8070000
   3.1650000   7.8260000  -0.1890000   4.0290000   8.9020000  -2.6910000
  -0.6120000  -2.7210000 -10.9250000   2.2510000   8.3290000  -1.1130000
   2.6700000   8.8440000  -2.3470000   3.6070000  -0.1920000  -1.4900000
   1.3400000  -1.9740000  -0.8900000   2.9420000  -2.5600000  -1.3570000
   1.7260000   1.6750000   2.1130000   2.9920000  -3.3920000  -3.5040000
   0.5040000  -0.1000000  -2.7430000   5.7700000   3.3780000  -1.5730000
   6.8330000   2.7090000  -0.3150000   2.3370000  -3.3380000  -5.8220000
  -0.1460000  -0.0520000  -5.0700000   5.3160000   4.7200000   2.9710000
   4.5980000   5.6470000   1.6230000   3.0380000   5.9060000   3.1970000
   1.8970000   2.0880000   4.4240000   7.2310000   4.2680000   1.7020000
   6.8800000   5.9700000   1.4270000   0.7900000   2.7900000   6.6430000
   0.0800000   4.3810000   6.5080000   1.6000000   4.1710000   7.3440000
  -0.3860000  -0.0830000  -7.7330000  -1.3170000  -1.1350000  -6.6980000
   2.5620000  -2.3020000  -7.6670000   1.9810000  -0.7930000  -8.3260000
  -1.9690000  -1.3640000  -9.0860000  -1.3150000  -2.8670000  -8.4140000
   0.9490000  -3.5530000  -9.0000000   1.8900000  -2.4820000 -10.0500000
   8.3490000   8.7050000  -2.1860000   7.2450000  10.0570000  -2.0980000
   7.2030000   8.9830000  -3.4760000   0.1030000  -0.9960000 -10.1480000
   2.8770000   7.4830000   0.7410000   4.3370000   9.3440000  -3.5710000
  -0.8290000  -3.7150000 -10.5930000   0.1200000  -2.7570000 -11.7040000
  -1.5060000  -2.2660000 -11.2970000   1.2450000   8.3220000  -0.8840000
   1.9640000   9.1870000  -3.0170000
