%VERSION  VERSION_STAMP = V0001.000  DATE = 09/01/26  08:18:51                  
%FLAG TITLE                                                                     
%FORMAT(20a4)                                                                   
MOL                                                                             
%FLAG POINTERS                                                                  
%FORMAT(10I8)                                                                   
      80      16      36      50      81      72     142     119       0       0
     452       1      50      72     119      38      74      37      21       0
       0       0       0       0       0       0       0       0      80       0
       0
%FLAG ATOM_NAME                                                                 
%FORMAT(20a4)                                                                   
O1  C1  N1  C2  C3  N2  C4  C5  C6  C7  C8  C9  C10 C11 N3  C12 C13 C14 N4  N5  
C15 C16 C17 C18 C19 C20 N6  O2  C21 C22 C23 O3  C24 C25 C26 C27 C28 C29 N7  C30 
C31 C32 C33 C34 H1  H2  H3  H4  H5  H6  H7  H8  H9  H10 H11 H12 H13 H14 H15 H16 
H17 H18 H19 H20 H21 H22 H23 H24 H25 H26 H27 H28 H29 H30 H31 H32 H33 H34 H35 H36 
%FLAG CHARGE                                                                    
%FORMAT(5E16.8)                                                                 
 -1.11538698E+01  1.04705336E+01 -9.92933127E+00  6.64749504E+00  2.37436569E+00
 -1.21178295E+01 -3.88681659E+00 -1.91880819E+00  7.20874188E+00  1.12613814E+00
 -1.71289620E+00 -1.71289620E+00 -2.58027768E+00  5.59424610E-01  2.31969879E+00
 -2.64223350E+00 -2.64223350E+00 -1.20449403E+00 -8.15994594E+00 -9.08928324E+00
 -2.33792109E+00  1.48693968E+00  1.49422860E+00  1.28886328E+01  5.67077976E+00
 -5.19882219E+00 -1.16440497E+01 -1.06800900E+01 -1.11338253E+00  2.91192354E+00
  2.91192354E+00 -3.64810446E+00 -2.98845720E-01  1.90058589E+00  1.90058589E+00
  1.40493933E+00 -2.29236534E+00 -9.82181970E-01 -1.24531198E+01 -2.33245440E+00
 -1.23911640E+00  1.53249543E+00 -1.76756310E+00 -2.73334500E+00  6.04069245E+00
  1.38853926E+00  1.38853926E+00  3.18890250E+00  2.94290145E+00  2.94290145E+00
  1.62542916E+00  1.62542916E+00  2.46001050E+00  2.46001050E+00  1.62542916E+00
  1.62542916E+00  3.35290320E+00  1.25187201E+00  1.25187201E+00  9.49381830E-01
  3.18890250E+00  1.46142846E+00  1.46142846E+00  1.46142846E+00  1.46142846E+00
  1.98531959E+00  1.98531959E+00  1.98531959E+00  1.98531959E+00  1.12431591E+00
  1.12431591E+00  1.12431591E+00  8.10527904E+00  2.82445650E+00  2.62401120E+00
  1.91394284E+00  1.91394284E+00  1.91394284E+00  2.56934430E+00  2.56934430E+00
%FLAG ATOMIC_NUMBER                                                             
%FORMAT(10I8)                                                                   
       8       6       7       6       6       7       6       6       6       6
       6       6       6       6       7       6       6       6       7       7
       6       6       6       6       6       6       7       8       6       6
       6       8       6       6       6       6       6       6       7       6
       6       6       6       6       1       1       1       1       1       1
       1       1       1       1       1       1       1       1       1       1
       1       1       1       1       1       1       1       1       1       1
       1       1       1       1       1       1       1       1       1       1
%FLAG MASS                                                                      
%FORMAT(5E16.8)                                                                 
  1.60000000E+01  1.20100000E+01  1.40100000E+01  1.20100000E+01  1.20100000E+01
  1.40100000E+01  1.20100000E+01  1.20100000E+01  1.20100000E+01  1.20100000E+01
  1.20100000E+01  1.20100000E+01  1.20100000E+01  1.20100000E+01  1.40100000E+01
  1.20100000E+01  1.20100000E+01  1.20100000E+01  1.40100000E+01  1.40100000E+01
  1.20100000E+01  1.20100000E+01  1.20100000E+01  1.20100000E+01  1.20100000E+01
  1.20100000E+01  1.40100000E+01  1.60000000E+01  1.20100000E+01  1.20100000E+01
  1.20100000E+01  1.60000000E+01  1.20100000E+01  1.20100000E+01  1.20100000E+01
  1.20100000E+01  1.20100000E+01  1.20100000E+01  1.40100000E+01  1.20100000E+01
  1.20100000E+01  1.20100000E+01  1.20100000E+01  1.20100000E+01  1.00800000E+00
  1.00800000E+00  1.00800000E+00  1.00800000E+00  1.00800000E+00  1.00800000E+00
  1.00800000E+00  1.00800000E+00  1.00800000E+00  1.00800000E+00  1.00800000E+00
  1.00800000E+00  1.00800000E+00  1.00800000E+00  1.00800000E+00  1.00800000E+00
  1.00800000E+00  1.00800000E+00  1.00800000E+00  1.00800000E+00  1.00800000E+00
  1.00800000E+00  1.00800000E+00  1.00800000E+00  1.00800000E+00  1.00800000E+00
  1.00800000E+00  1.00800000E+00  1.00800000E+00  1.00800000E+00  1.00800000E+00
  1.00800000E+00  1.00800000E+00  1.00800000E+00  1.00800000E+00  1.00800000E+00
%FLAG ATOM_TYPE_INDEX                                                           
%FORMAT(10I8)                                                                   
       1       2       3       2       4       5       2       2       2       2
       2       2       2       4       6       2       2       4       7       5
       2       2       4       2       2       2       8       1       2       4
       4       9       2       4       4       2       2       4      10       2
       2       4       2       2      11      12      12      13      13      13
      12      12      13      13      14      14      15      12      12      15
      13      12      12      12      12      16      16      16      16      14
      14      14      11      13      13      16      16      16      13      13
%FLAG NUMBER_EXCLUDED_ATOMS                                                     
%FORMAT(10I8)                                                                   
       7      12      10      10      10      10       8      12      12      13
      10       9      14      10       9       8       7       7      12       6
       5      13       9      11       4       3      15       3      10      12
      11       8      10      13      12       9      11       4      13       6
       5       8       5       4       2       1       1       1       1       1
       1       1       1       1       3       2       1       1       1       1
       1       3       2       3       2       2       1       2       1       2
       1       1       3       1       1       2       1       1       1       1
%FLAG NONBONDED_PARM_INDEX                                                      
%FORMAT(10I8)                                                                   
       1       2       4       7      11      16      22      29      37      46
      56      67      79      92     106     121       2       3       5       8
      12      17      23      30      38      47      57      68      80      93
     107     122       4       5       6       9      13      18      24      31
      39      48      58      69      81      94     108     123       7       8
       9      10      14      19      25      32      40      49      59      70
      82      95     109     124      11      12      13      14      15      20
      26      33      41      50      60      71      83      96     110     125
      16      17      18      19      20      21      27      34      42      51
      61      72      84      97     111     126      22      23      24      25
      26      27      28      35      43      52      62      73      85      98
     112     127      29      30      31      32      33      34      35      36
      44      53      63      74      86      99     113     128      37      38
      39      40      41      42      43      44      45      54      64      75
      87     100     114     129      46      47      48      49      50      51
      52      53      54      55      65      76      88     101     115     130
      56      57      58      59      60      61      62      63      64      65
      66      77      89     102     116     131      67      68      69      70
      71      72      73      74      75      76      77      78      90     103
     117     132      79      80      81      82      83      84      85      86
      87      88      89      90      91     104     118     133      92      93
      94      95      96      97      98      99     100     101     102     103
     104     105     119     134     106     107     108     109     110     111
     112     113     114     115     116     117     118     119     120     135
     121     122     123     124     125     126     127     128     129     130
     131     132     133     134     135     136
%FLAG RESIDUE_LABEL                                                             
%FORMAT(20a4)                                                                   
MOL 
%FLAG RESIDUE_POINTER                                                           
%FORMAT(10I8)                                                                   
       1
%FLAG BOND_FORCE_CONSTANT                                                       
%FORMAT(5E16.8)                                                                 
  5.90600000E+02  3.36070000E+02  2.62840000E+02  2.61660000E+02  4.73590000E+02
  3.86490000E+02  3.54250000E+02  2.43910000E+02  3.44220000E+02  3.60690000E+02
  2.39730000E+02  3.29320000E+02  2.52360000E+02  3.42020000E+02  2.90410000E+02
  3.35500000E+02  2.26810000E+02  3.42750000E+02  3.17460000E+02  4.17790000E+02
  3.86240000E+02  3.68720000E+02  3.10840000E+02  2.81780000E+02  3.21490000E+02
  3.67290000E+02  3.64600000E+02  2.52920000E+02  3.51190000E+02  3.43340000E+02
  2.88790000E+02  2.53870000E+02  2.16590000E+02  3.49850000E+02  3.45250000E+02
  2.19760000E+02  4.31010000E+02  3.52860000E+02
%FLAG BOND_EQUIL_VALUE                                                          
%FORMAT(5E16.8)                                                                 
  1.21900000E+00  1.37980000E+00  1.49070000E+00  1.45560000E+00  1.01320000E+00
  1.33920000E+00  1.39860000E+00  1.51470000E+00  1.09690000E+00  1.08600000E+00
  1.52030000E+00  1.38580000E+00  1.46690000E+00  1.09840000E+00  1.35700000E+00
  1.38030000E+00  1.53840000E+00  1.09790000E+00  1.39670000E+00  1.31710000E+00
  1.37300000E+00  1.08090000E+00  1.40300000E+00  1.46870000E+00  1.42790000E+00
  1.08180000E+00  1.08350000E+00  1.46620000E+00  1.36220000E+00  1.36880000E+00
  1.46100000E+00  1.50180000E+00  1.51560000E+00  1.09310000E+00  1.09620000E+00
  1.51090000E+00  1.03380000E+00  1.09110000E+00
%FLAG ANGLE_FORCE_CONSTANT                                                      
%FORMAT(5E16.8)                                                                 
  8.72100000E+01  7.79600000E+01  7.69000000E+01  5.73700000E+01  6.70900000E+01
  6.14400000E+01  6.70600000E+01  6.58400000E+01  4.83900000E+01  8.31500000E+01
  6.36700000E+01  4.49000000E+01  5.46200000E+01  6.07400000E+01  6.81700000E+01
  6.68100000E+01  6.78200000E+01  4.38100000E+01  6.06600000E+01  6.55100000E+01
  4.38000000E+01  8.72100000E+01  8.04900000E+01  6.02800000E+01  4.36900000E+01
  7.66300000E+01  7.69600000E+01  9.39000000E+01  7.28100000E+01  4.79900000E+01
  6.71800000E+01  6.52900000E+01  4.32800000E+01  4.80600000E+01  8.66800000E+01
  6.80100000E+01  8.73600000E+01  6.84600000E+01  5.03500000E+01  6.45700000E+01
  4.52500000E+01  7.72200000E+01  4.32300000E+01  7.70000000E+01  6.22000000E+01
  4.38000000E+01  4.39500000E+01  4.29600000E+01  6.55700000E+01  4.79000000E+01
  7.83600000E+01  9.56300000E+01  6.16400000E+01  6.00600000E+01  7.75900000E+01
  6.43500000E+01  4.29100000E+01  8.26200000E+01  7.90000000E+01  6.20200000E+01
  4.39500000E+01  7.55500000E+01  7.50600000E+01  5.49800000E+01  5.86200000E+01
  4.71000000E+01  4.68800000E+01  5.52900000E+01  3.56400000E+01  3.57700000E+01
  3.59300000E+01  3.57700000E+01  3.58000000E+01  3.56300000E+01
%FLAG ANGLE_EQUIL_VALUE                                                         
%FORMAT(5E16.8)                                                                 
  2.14762857E+00  2.13977458E+00  2.12860447E+00  2.04657396E+00  2.05390434E+00
  2.10015559E+00  2.00870030E+00  1.95511867E+00  1.89350852E+00  2.04622489E+00
  2.09474507E+00  2.09230160E+00  2.04936649E+00  2.10888224E+00  2.14570870E+00
  2.01917228E+00  2.09980652E+00  1.91288168E+00  2.10486798E+00  1.95284974E+00
  1.90118797E+00  1.99787925E+00  2.04762116E+00  1.95424600E+00  1.91061275E+00
  2.10259905E+00  1.99089793E+00  1.81217614E+00  1.86313978E+00  2.11202383E+00
  2.11411823E+00  1.94028336E+00  1.90555129E+00  1.89403212E+00  2.13925098E+00
  1.96681238E+00  1.99962458E+00  2.10661331E+00  2.06193286E+00  2.02824799E+00
  2.12406661E+00  2.06350366E+00  1.91026369E+00  2.08025883E+00  2.11743436E+00
  2.12668460E+00  2.25339556E+00  2.21220578E+00  1.92474992E+00  1.90799476E+00
  2.16525640E+00  1.84830447E+00  2.16927066E+00  2.21098404E+00  1.96052919E+00
  1.93836350E+00  1.94045789E+00  1.94656655E+00  2.07886256E+00  2.10888224E+00
  1.93068405E+00  1.93539644E+00  1.96663784E+00  1.86994656E+00  2.20138473E+00
  1.86488511E+00  1.89350852E+00  1.86017271E+00  1.89455572E+00  1.87622975E+00
  1.86087085E+00  1.89420665E+00  1.88024401E+00  1.91619781E+00
%FLAG DIHEDRAL_FORCE_CONSTANT                                                   
%FORMAT(5E16.8)                                                                 
  2.50000000E+00  2.00000000E+00  1.00000000E+00  5.80000000E-01  0.00000000E+00
  0.00000000E+00  4.80000000E+00  3.62500000E+00  2.12250000E+00  3.00000000E+00
  2.00000000E+00  5.00000000E-01  3.00000000E-01  6.13000000E-01  2.40000000E-01
  1.70000000E+00  2.10000000E-01  1.55555556E-01  4.75000000E+00  4.00000000E+00
  7.53000000E-01  1.02000000E+00  1.70000000E-01  1.00000000E-01  2.87500000E+00
  3.32000000E-01  0.00000000E+00  2.64000000E+00  1.82500000E+00  3.77000000E+00
  0.00000000E+00  1.56000000E-01  6.50000000E-01  6.00000000E-01  1.09000000E-01
  1.05000000E+01  1.10000000E+00
%FLAG DIHEDRAL_PERIODICITY                                                      
%FORMAT(5E16.8)                                                                 
  2.00000000E+00  1.00000000E+00  2.00000000E+00  2.00000000E+00  2.00000000E+00
  1.00000000E+00  2.00000000E+00  2.00000000E+00  2.00000000E+00  1.00000000E+00
  2.00000000E+00  3.00000000E+00  2.00000000E+00  2.00000000E+00  2.00000000E+00
  2.00000000E+00  3.00000000E+00  3.00000000E+00  2.00000000E+00  2.00000000E+00
  2.00000000E+00  1.00000000E+00  3.00000000E+00  4.00000000E+00  2.00000000E+00
  2.00000000E+00  2.00000000E+00  2.00000000E+00  2.00000000E+00  2.00000000E+00
  3.00000000E+00  3.00000000E+00  1.00000000E+00  2.00000000E+00  3.00000000E+00
  2.00000000E+00  2.00000000E+00
%FLAG DIHEDRAL_PHASE                                                            
%FORMAT(5E16.8)                                                                 
  3.14159400E+00  0.00000000E+00  3.14159400E+00  3.14159400E+00  0.00000000E+00
  0.00000000E+00  3.14159400E+00  3.14159400E+00  3.14159400E+00  3.14159400E+00
  3.14159400E+00  0.00000000E+00  3.14159400E+00  3.14159400E+00  3.14159400E+00
  3.14159400E+00  0.00000000E+00  0.00000000E+00  3.14159400E+00  3.14159400E+00
  3.14159400E+00  3.14159400E+00  0.00000000E+00  3.14159400E+00  3.14159400E+00
  0.00000000E+00  3.14159400E+00  3.14159400E+00  3.14159400E+00  3.14159400E+00
  0.00000000E+00  0.00000000E+00  3.14159400E+00  3.14159400E+00  0.00000000E+00
  3.14159400E+00  3.14159400E+00
%FLAG SCEE_SCALE_FACTOR                                                         
%FORMAT(5E16.8)                                                                 
  1.20000000E+00  1.20000000E+00  1.20000000E+00  1.20000000E+00  1.20000000E+00
  1.20000000E+00  1.20000000E+00  1.20000000E+00  1.20000000E+00  1.20000000E+00
  1.20000000E+00  1.20000000E+00  1.20000000E+00  1.20000000E+00  1.20000000E+00
  1.20000000E+00  1.20000000E+00  1.20000000E+00  1.20000000E+00  1.20000000E+00
  1.20000000E+00  1.20000000E+00  1.20000000E+00  1.20000000E+00  1.20000000E+00
  1.20000000E+00  1.20000000E+00  1.20000000E+00  1.20000000E+00  1.20000000E+00
  1.20000000E+00  1.20000000E+00  1.20000000E+00  1.20000000E+00  1.20000000E+00
  0.00000000E+00  0.00000000E+00
%FLAG SCNB_SCALE_FACTOR                                                         
%FORMAT(5E16.8)                                                                 
  2.00000000E+00  2.00000000E+00  2.00000000E+00  2.00000000E+00  2.00000000E+00
  2.00000000E+00  2.00000000E+00  2.00000000E+00  2.00000000E+00  2.00000000E+00
  2.00000000E+00  2.00000000E+00  2.00000000E+00  2.00000000E+00  2.00000000E+00
  2.00000000E+00  2.00000000E+00  2.00000000E+00  2.00000000E+00  2.00000000E+00
  2.00000000E+00  2.00000000E+00  2.00000000E+00  2.00000000E+00  2.00000000E+00
  2.00000000E+00  2.00000000E+00  2.00000000E+00  2.00000000E+00  2.00000000E+00
  2.00000000E+00  2.00000000E+00  2.00000000E+00  2.00000000E+00  2.00000000E+00
  0.00000000E+00  0.00000000E+00
%FLAG SOLTY                                                                     
%FORMAT(5E16.8)                                                                 
  0.00000000E+00  0.00000000E+00  0.00000000E+00  0.00000000E+00  0.00000000E+00
  0.00000000E+00  0.00000000E+00  0.00000000E+00  0.00000000E+00  0.00000000E+00
  0.00000000E+00  0.00000000E+00  0.00000000E+00  0.00000000E+00  0.00000000E+00
  0.00000000E+00  0.00000000E+00  0.00000000E+00  0.00000000E+00  0.00000000E+00
  0.00000000E+00
%FLAG LENNARD_JONES_ACOEF                                                       
%FORMAT(5E16.8)                                                                 
  3.76435470E+05  5.17507491E+05  6.96551276E+05  5.17814271E+05  6.99381362E+05
  7.01825028E+05  6.30925504E+05  8.43969952E+05  8.48258258E+05  1.02073671E+06
  5.74782316E+05  7.69642101E+05  7.73425391E+05  9.31115275E+05  8.49322032E+05
  6.04208667E+05  8.20152428E+05  8.22346035E+05  9.96191545E+05  9.08092643E+05
  9.62429652E+05  5.15491878E+05  7.01106848E+05  7.02755693E+05  8.52084164E+05
  7.76656876E+05  8.22085792E+05  7.02078680E+05  6.01376873E+05  8.17329084E+05
  8.19347611E+05  9.93125065E+05  9.05243612E+05  9.58637891E+05  8.18751801E+05
  9.54790629E+05  3.27367585E+05  4.46121722E+05  4.47026838E+05  5.42502534E+05
  4.94433451E+05  5.22690526E+05  4.46307018E+05  5.20510209E+05  2.83662575E+05
  6.13063863E+05  8.78080588E+05  8.72740728E+05  1.08339010E+06  9.85071815E+05
  1.00856479E+06  8.57202189E+05  1.00141202E+06  5.42300297E+05  9.21656095E+05
  9.87857350E+02  1.71458823E+03  1.65195713E+03  2.23577481E+03  2.01475241E+03
  1.82491629E+03  1.52360475E+03  1.79157166E+03  9.46795083E+02  1.00942006E+03
  1.34728399E-01  3.86646725E+04  5.63013422E+04  5.58085097E+04  6.97998263E+04
  6.34160397E+04  6.42436358E+04  5.45183252E+04  6.37258620E+04  3.44374471E+04
  5.62691404E+04  5.24570081E+01  3.39005767E+03  5.27277400E+04  7.52549148E+04
  7.48403283E+04  9.27554496E+04  8.43518904E+04  8.65595848E+04  7.35931098E+04
  8.59636060E+04  4.65732396E+04  7.98194249E+04  9.04434904E+01  4.88692384E+03
  6.90855956E+03  5.68021765E+04  8.12662403E+04  8.07866982E+04  1.00235148E+05
  9.11435380E+04  9.33839501E+04  7.93773615E+04  9.27277603E+04  5.02224902E+04
  8.55808446E+04  9.47421632E+01  5.22955465E+03  7.41026906E+03  7.94617769E+03
  4.36069364E+04  6.27751680E+04  6.23418310E+04  7.75673747E+04  7.05112106E+04
  7.19580450E+04  6.11299385E+04  7.14263282E+04  3.86549715E+04  6.49071593E+04
  6.76796831E+01  3.94664935E+03  5.62610481E+03  6.02863188E+03  4.56536476E+03
  1.12566992E+04  1.74110867E+04  1.70902479E+04  2.19657590E+04  1.99003866E+04
  1.93962554E+04  1.63679607E+04  1.91715719E+04  1.02811573E+04  1.45326307E+04
  7.30589786E+00  8.33358592E+02  1.27542632E+03  1.35510742E+03  1.00402713E+03
  1.70079100E+02
%FLAG LENNARD_JONES_BCOEF                                                       
%FORMAT(5E16.8)                                                                 
  4.69350655E+02  4.98871431E+02  5.24668528E+02  5.21008860E+02  5.48900066E+02
  5.74088001E+02  5.62969425E+02  5.90251928E+02  6.17825399E+02  6.63431737E+02
  5.19385932E+02  5.44830041E+02  5.70234696E+02  6.12468585E+02  5.65406768E+02
  6.46321327E+02  6.82622272E+02  7.13654906E+02  7.68900328E+02  7.09588248E+02
  8.86629877E+02  5.64804067E+02  5.97113873E+02  6.24158704E+02  6.72777963E+02
  6.20851625E+02  7.75261695E+02  6.77820248E+02  6.53166727E+02  6.90283231E+02
  7.21590374E+02  7.77671659E+02  7.17661669E+02  8.96356641E+02  7.83721154E+02
  9.06156687E+02  3.67361018E+02  3.88758656E+02  4.06301077E+02  4.38146883E+02
  4.04310927E+02  5.04545572E+02  4.41089616E+02  5.10021392E+02  2.87011518E+02
  1.22328790E+03  1.32715352E+03  1.38141570E+03  1.50664821E+03  1.38866053E+03
  1.70541695E+03  1.48748365E+03  1.72139587E+03  9.65647936E+02  3.06326052E+03
  1.22938581E+01  1.46824710E+01  1.50468782E+01  1.71355763E+01  1.57231024E+01
  1.81620725E+01  1.57004457E+01  1.82287422E+01  1.01016461E+01  2.53805311E+01
  7.34107347E-02  9.23664132E+01  1.01040256E+02  1.05029928E+02  1.14981426E+02
  1.05935811E+02  1.29412081E+02  1.12788003E+02  1.30560951E+02  7.31636661E+01
  2.27570369E+02  1.73959275E+00  1.67944276E+01  1.01173582E+02  1.09570372E+02
  1.14083104E+02  1.24325688E+02  1.14599119E+02  1.40899023E+02  1.22913863E+02
  1.42233990E+02  7.98066064E+01  2.54229244E+02  2.14252117E+00  1.89134207E+01
  2.10929191E+01  1.11953944E+02  1.21392023E+02  1.26366740E+02  1.37787728E+02
  1.27000718E+02  1.56025608E+02  1.36094315E+02  1.57492664E+02  8.83545880E+01
  2.80652463E+02  2.33785449E+00  2.08590256E+01  2.32899892E+01  2.57122925E+01
  9.20079458E+01  1.00073628E+02  1.04122183E+02  1.13692208E+02  1.04776275E+02
  1.28466555E+02  1.12023534E+02  1.29650812E+02  7.27065100E+01  2.29254310E+02
  1.85338491E+00  1.69967767E+01  1.90347353E+01  2.10068861E+01  1.71467049E+01
  4.98382106E+01  5.61885732E+01  5.81215296E+01  6.45020662E+01  5.93436142E+01
  7.11080405E+01  6.18000664E+01  7.16117531E+01  3.99761520E+01  1.15651879E+02
  6.49206153E-01  8.32679019E+00  9.66228818E+00  1.06181419E+01  8.57284598E+00
  3.76172582E+00
%FLAG BONDS_INC_HYDROGEN                                                        
%FORMAT(10I8)                                                                   
       6     132       5      12     135       9      12     138       9      18
     141      10      30     144      10      33     147      10      39     150
      14      39     153      14      45     156      10      48     159      10
      51     162      18      51     165      18      60     168      22      66
     171      14      66     174      14      72     177      26      75     180
      27      87     183      14      87     186      14      90     189      14
      90     192      14      99     195      34      99     198      34     102
     201      34     102     204      34     111     207      35     111     210
      35     111     213      35     114     216      37     117     219      10
     120     222      10     123     225      38     123     228      38     123
     231      38     126     234      10     129     237      10
%FLAG BONDS_WITHOUT_HYDROGEN                                                    
%FORMAT(10I8)                                                                   
       0       3       1       3       6       2       3       9       3       6
      12       4       9      15       6       9      18       7      12      21
       8      15      24       6      18      27       7      21      30       7
      21      33       7      24      36       7      24      39      11      27
      42      12      27      36       7      30      45       7      33      48
       7      36      51      11      39      54      13      42      57      15
      42      60      16      45      63       7      48      63       7      51
      66      17      54      69      19      54      66      13      57      72
      20      60      75      21      63      78      23      69      81       1
      69      84      24      72      75      25      78      87      28      78
      90      28      84      93      29      84      96      21      87      99
      17      90     102      17      93     105      30      96     108      31
      96     111      32      99     114      33     102     114      33     105
     117       7     105     108       7     108     120       7     114     123
      36     117     126       7     120     129       7     126     129       7
%FLAG ANGLES_INC_HYDROGEN                                                       
%FORMAT(10I8)                                                                   
       3       6     132       4       6      12     135       9       6      12
     138       9       9      18     141      12      12       6     132      13
      21      12     135      18      21      12     138      18      21      30
     144      12      21      33     147      12      24      39     150      21
      24      39     153      21      27      18     141      12      30      45
     156      12      33      48     159      12      36      51     162      25
      36      51     165      25      42      60     168      30      45      30
     144      12      48      33     147      12      51      66     171      33
      51      66     174      33      54      39     150      34      54      39
     153      34      54      66     171      34      54      66     174      34
      57      72     177      39      60      75     180      41      63      45
     156      12      63      48     159      12      66      51     162      43
      66      51     165      43      72      75     180      46      75      60
     168      47      75      72     177      48      78      87     183      50
      78      87     186      50      78      90     189      50      78      90
     192      50      87      99     195      57      87      99     198      57
      90     102     201      57      90     102     204      57      96     111
     207      61      96     111     210      61      96     111     213      61
      99      87     183      33      99      87     186      33      99     114
     216      64     102      90     189      33     102      90     192      33
     102     114     216      64     105     117     219      12     108     120
     222      12     114      99     195      66     114      99     198      66
     114     102     201      66     114     102     204      66     114     123
     225      67     114     123     228      67     114     123     231      67
     117     126     234      12     120     129     237      12     123     114
     216      68     126     117     219      12     126     129     237      12
     129     120     222      12     129     126     234      12     135      12
     138      69     150      39     153      70     162      51     165      71
     171      66     174      70     183      87     186      70     189      90
     192      70     195      99     198      72     201     102     204      72
     207     111     210      73     207     111     213      73     210     111
     213      73     225     123     228      74     225     123     231      74
     228     123     231      74
%FLAG ANGLES_WITHOUT_HYDROGEN                                                   
%FORMAT(10I8)                                                                   
       0       3       6       1       0       3       9       2       3       6
      12       3       3       9      15       5       3       9      18       6
       6       3       9       7       6      12      21       8       9      15
      24      10       9      18      27      11      12      21      30      14
      12      21      33      14      15       9      18      15      15      24
      36      15      15      24      39      16      18      27      42      17
      18      27      36      11      21      30      45      11      21      33
      48      11      24      36      27      11      24      36      51      19
      24      39      54      20      27      42      57      22      27      42
      60      23      27      36      51      19      30      21      33      11
      30      45      63      11      33      48      63      11      36      24
      39      19      36      27      42      17      36      51      66      24
      39      54      69      26      39      54      66      27      42      57
      72      28      42      60      75      29      45      63      48      11
      45      63      78      31      48      63      78      31      51      66
      54      32      54      69      81      35      54      69      84      36
      57      42      60      37      57      72      75      38      60      75
      72      40      63      78      87      42      63      78      90      42
      66      54      69      26      69      84      93      44      69      84
      96      45      78      87      99      49      78      90     102      49
      81      69      84      51      84      93     105      52      84      96
     108      53      84      96     111      54      87      78      90      55
      87      99     114      56      90     102     114      56      93      84
      96      58      93     105     117      59      93     105     108      59
      96     108     105      60      96     108     120      60      99     114
     102      62      99     114     123      63     102     114     123      63
     105     117     126      11     105     108     120      11     108      96
     111      65     108     105     117      11     108     120     129      11
     117     126     129      11     120     129     126      11
%FLAG DIHEDRALS_INC_HYDROGEN                                                    
%FORMAT(10I8)                                                                   
       0       3       6     132       2       0       3      -6     132       1
       3       6      12     135       6       3       6      12     138       6
       3       9      18     141       8       9       3       6     132       1
      12      21      30     144       8      12      21      33     147       8
      15       9      18     141       8      15      24      39     150       5
      15      24      39     153       5      21      12       6     132       5
      21      30      45     156       8      21      33      48     159       8
      24      36      51     162       6      24      36      51     165       6
      27      42      60     168      16      27      36      51     162       6
      27      36      51     165       6      30      21      12     135       5
      30      21      12     138       5      30      21      33     147       8
      33      21      12     135       5      33      21      12     138       5
      33      21      30     144       8      36      24      39     150       5
      36      24      39     153       5      36      27      18     141       8
      36      51      66     171      18      36      51      66     174      18
      39      54      66     171       5      39      54      66     174       5
      42      27      18     141       8      42      57      72     177      19
      42      60      75     180      20      45      63      48     159       8
      48      63      45     156       8      54      66      51     162      18
      54      66      51     165      18      57      42      60     168      16
      57      72      75     180      20      60      75      72     177      20
      63      45      30     144       8      63      48      33     147       8
      63      78      87     183      26      63      78      87     186      26
      63      78      90     189      26      63      78      90     192      26
      66      54      39     150       5      66      54      39     153       5
      69      54      39     150      27      69      54      39     153      27
      69      54      66     171      27      69      54      66     174      27
      72      75      60     168      20      78      63      45     156       8
      78      63      48     159       8      78      87      99     195      18
      78      87      99     198      18      78      90     102     201      18
      78      90     102     204      18      84      96     111     207      31
      84      96     111     210      31      84      96     111     213      31
      87      78      90     189       5      87      78      90     192       5
      87      99     114     216      18      90      78      87     183       5
      90      78      87     186       5      90     102     114     216      18
      93     105     117     219       8      96     108     120     222       8
      99     114     102     201      18      99     114     102     204      18
      99     114     123     225      18      99     114     123     228      18
      99     114     123     231      18     102     114      99     195      18
     102     114      99     198      18     102     114     123     225      18
     102     114     123     228      18     102     114     123     231      18
     105     117     126     234       8     105     108     120     222       8
     108      96     111     207      31     108      96     111     210      31
     108      96     111     213      31     108     105     117     219       8
     108     120     129     237       8     114      99      87     183      18
     114      99      87     186      18     114     102      90     189      18
     114     102      90     192      18     117     126     129     237       8
     120     129     126     234       8     123     114      99     195      18
     123     114      99     198      18     123     114     102     201      18
     123     114     102     204      18     126     129     120     222       8
     129     126     117     219       8     132       6      12     135       5
     132       6      12     138       5     144      30      45     156       8
     147      33      48     159       8     162      51      66     171      18
     162      51      66     174      18     165      51      66     171      18
     165      51      66     174      18     168      60      75     180      20
     177      72      75     180      20     183      87      99     195      18
     183      87      99     198      18     186      87      99     195      18
     186      87      99     198      18     189      90     102     201      18
     189      90     102     204      18     192      90     102     201      18
     192      90     102     204      18     195      99     114     216      35
     198      99     114     216      35     201     102     114     216      35
     204     102     114     216      35     216     114     123     225      35
     216     114     123     228      35     216     114     123     231      35
     219     117     126     234       8     222     120     129     237       8
     234     126     129     237       8       3      12      -6    -132      37
       9      27     -18    -141      37      21      45     -30    -144      37
      21      48     -33    -147      37      30      63     -45    -156      37
      33      63     -48    -159      37      75     168     -60     -42      36
      75     177     -72     -57      36      60      72     -75    -180      36
     105     126    -117    -219      37     108     129    -120    -222      37
     117     129    -126    -234      37     120     126    -129    -237      37
%FLAG DIHEDRALS_WITHOUT_HYDROGEN                                                
%FORMAT(10I8)                                                                   
       0       3       6      12       1       0       3       9      15       3
       0       3       9      18       4       3       6      12      21       5
       3       9      15      24       7       3       9      18      27       8
       6       3       9      15       3       6       3       9      18       9
       6      12      21      30       5       6      12      21      33       5
       9       3       6      12      10       9       3      -6      12      11
       9       3      -6      12      12       9      15      24      36       7
       9      15      24      39       7       9      18      27      42       8
       9      18     -27      36       8      12      21      30      45       8
      12      21      33      48       8      15       9      18      27       8
      15      24     -36      27       8      15      24      36      51       8
      15      24      39      54       5      18       9      15      24       7
      18      27      42      57      13      18      27      42      60      14
      18      27     -36      24       8      18      27      36      51       8
      21      30      45      63       8      21      33     -48      63       8
      24      36      27      42       8      24      36      51      66      15
      24      39      54      69       5      24      39     -54      66       5
      27      42      57      72       7      27      42      60      75      16
      27      36      24      39       8      27      36      51      66      15
      30      21      33      48       8      30      45     -63      48       8
      30      45      63      78       8      33      21      30      45       8
      33      48     -63      45       8      33      48      63      78       8
      36      24      39      54       5      36      27      42      57      13
      36      27      42      60      14      36      51     -66      54      17
      39      24      36      51       8      39      54      69      81       1
      39      54      69      84       1      39      54     -66      51       5
      42      27      36      51       8      42      57     -72      75      19
      42      60     -75      72      20      45      63      78      87      21
      45      63      78      90      21      48      63      78      87      21
      48      63      78      90      21      51      66      54      69      22
      51      66     -54      69      23      51      66     -54      69      24
      54      69      84      93      25      54      69      84      96      25
      57      42     -60      75      16      57      72     -75      60      20
      60      42     -57      72       7      63      78      87      99       5
      63      78      90     102       5      66      54      69      81       1
      66      54      69      84       1      69      84      93     105      28
      69      84      96     108      20      69      84      96     111      20
      78      87      99     114      18      78      90    -102     114      18
      81      69      84      93      25      81      69      84      96      25
      84      93     105     117      29      84      93    -105     108      29
      84      96    -108     105      30      84      96     108     120      30
      87      78      90     102       5      87      99    -114     102      32
      87      99     114     123      32      90      78      87      99       5
      90     102    -114      99      32      90     102     114     123      32
      93      84     -96     108      20      93      84      96     111      20
      93     105     117     126       8      93     105    -108      96       8
      93     105     108     120       8      96      84     -93     105      33
      96     108     105     117       8      96     108     120     129       8
     105     117     126     129       8     105     108      96     111      34
     105     108    -120     129       8     108     105     117     126       8
     108     120    -129     126       8     111      96     108     120      34
     117     105     108     120       8     117     126    -129     120       8
       0       3      -6      -9      36       3      18      -9     -15      36
      30      33     -21     -12      37      39      36     -24     -15      36
      18      36     -27     -42      36      51      24     -36     -27      36
      27      60     -42     -57      37      69      39     -54     -66      37
      45      48     -63     -78      36      84      54     -69     -81      36
      87      90     -78     -63      37      69      96     -84     -93      36
     111     108     -96     -84      36     108     117    -105     -93      36
     105     120    -108     -96      37
%FLAG EXCLUDED_ATOMS_LIST                                                       
%FORMAT(10I8)                                                                   
       2       3       4       5       6       7      45       3       4       5
       6       7       8       9      10      45      46      47      48       4
       5       6       7       8      11      12      45      46      47       5
       6       7       9      10      13      14      15      45      48       8
      11      12      16      17      45      46      47      49      50       7
       9      10      13      14      18      19      48      51      52       9
      10      13      15      18      20      21      48      11      12      16
      17      22      45      46      47      49      50      53      54      10
      13      14      15      18      19      23      24      51      52      55
      56      13      14      15      18      20      21      23      25      26
      48      55      56      57      12      16      17      22      27      46
      47      49      50      53      16      17      22      27      46      47
      49      50      54      14      15      18      19      20      21      23
      48      51      52      55      56      58      59      18      19      23
      24      28      29      51      52      58      59      18      20      21
      25      26      48      57      60      61      17      22      27      30
      31      49      53      54      22      27      30      31      50      53
      54      19      23      24      55      56      58      59      23      24
      28      29      32      33      51      52      55      56      58      59
      21      25      26      57      60      61      25      26      57      60
      61      27      30      31      34      35      49      50      53      54
      62      63      64      65      24      28      29      51      52      55
      56      58      59      28      29      32      33      36      37      38
      51      52      58      59      26      57      60      61      57      60
      61      30      31      34      35      39      53      54      62      63
      64      65      66      67      68      69      29      32      33      32
      33      36      37      38      40      41      70      71      72      31
      34      35      39      42      62      63      64      65      66      67
      73      34      35      39      42      62      63      64      65      68
      69      73      33      36      37      38      40      41      43      74
      36      37      38      40      41      44      70      71      72      75
      35      39      42      62      63      66      67      68      69      73
      76      77      78      39      42      64      65      66      67      68
      69      73      76      77      78      37      38      40      41      43
      44      74      75      79      38      40      41      43      44      70
      71      72      74      75      80      41      70      71      72      42
      62      63      64      65      66      67      68      69      73      76
      77      78      41      43      44      74      79      80      43      44
      75      79      80      66      67      68      69      73      76      77
      78      44      74      75      79      80      74      75      79      80
      46      47      47       0       0      53      54      52       0       0
       0      56      58      59      58      59      61      59       0      61
       0      63      66      67      66      67      65      68      69      68
      69      67      73      73      69      73      73      71      72      72
       0      76      77      78      79      80      77      78      78       0
      80       0
%FLAG HBOND_ACOEF                                                               
%FORMAT(5E16.8)                                                                 

%FLAG HBOND_BCOEF                                                               
%FORMAT(5E16.8)                                                                 

%FLAG HBCUT                                                                     
%FORMAT(5E16.8)                                                                 

%FLAG AMBER_ATOM_TYPE                                                           
%FORMAT(20a4)                                                                   
o   c   ns  ca  c3  nb  ca  ca  ca  ca  ca  ca  ca  c6  na  ca  ca  c6  n   nc  
cc  ca  c6  c   cd  cd  nh  o   cc  c6  c6  os  cd  c6  c6  ca  ca  c3  nx  ca  
ca  c3  ca  ca  hn  h1  h1  ha  ha  ha  h1  h1  ha  ha  hc  hc  h4  h1  h1  h4  
ha  h1  h1  h1  h1  hx  hx  hx  hx  hc  hc  hc  hn  ha  ha  hx  hx  hx  ha  ha  
%FLAG TREE_CHAIN_CLASSIFICATION                                                 
%FORMAT(20a4)                                                                   
BLA BLA BLA BLA BLA BLA BLA BLA BLA BLA BLA BLA BLA BLA BLA BLA BLA BLA BLA BLA 
BLA BLA BLA BLA BLA BLA BLA BLA BLA BLA BLA BLA BLA BLA BLA BLA BLA BLA BLA BLA 
BLA BLA BLA BLA BLA BLA BLA BLA BLA BLA BLA BLA BLA BLA BLA BLA BLA BLA BLA BLA 
BLA BLA BLA BLA BLA BLA BLA BLA BLA BLA BLA BLA BLA BLA BLA BLA BLA BLA BLA BLA 
%FLAG JOIN_ARRAY                                                                
%FORMAT(10I8)                                                                   
       0       0       0       0       0       0       0       0       0       0
       0       0       0       0       0       0       0       0       0       0
       0       0       0       0       0       0       0       0       0       0
       0       0       0       0       0       0       0       0       0       0
       0       0       0       0       0       0       0       0       0       0
       0       0       0       0       0       0       0       0       0       0
       0       0       0       0       0       0       0       0       0       0
       0       0       0       0       0       0       0       0       0       0
%FLAG IROTAT                                                                    
%FORMAT(10I8)                                                                   
       0       0       0       0       0       0       0       0       0       0
       0       0       0       0       0       0       0       0       0       0
       0       0       0       0       0       0       0       0       0       0
       0       0       0       0       0       0       0       0       0       0
       0       0       0       0       0       0       0       0       0       0
       0       0       0       0       0       0       0       0       0       0
       0       0       0       0       0       0       0       0       0       0
       0       0       0       0       0       0       0       0       0       0
%FLAG RADIUS_SET                                                                
%FORMAT(1a80)                                                                   
modified Bondi radii (mbondi)                                                   
%FLAG RADII                                                                     
%FORMAT(5E16.8)                                                                 
  1.50000000E+00  1.70000000E+00  1.55000000E+00  1.70000000E+00  1.70000000E+00
  1.55000000E+00  1.70000000E+00  1.70000000E+00  1.70000000E+00  1.70000000E+00
  1.70000000E+00  1.70000000E+00  1.70000000E+00  1.70000000E+00  1.55000000E+00
  1.70000000E+00  1.70000000E+00  1.70000000E+00  1.55000000E+00  1.55000000E+00
  1.70000000E+00  1.70000000E+00  1.70000000E+00  1.70000000E+00  1.70000000E+00
  1.70000000E+00  1.55000000E+00  1.50000000E+00  1.70000000E+00  1.70000000E+00
  1.70000000E+00  1.50000000E+00  1.70000000E+00  1.70000000E+00  1.70000000E+00
  1.70000000E+00  1.70000000E+00  1.70000000E+00  1.55000000E+00  1.70000000E+00
  1.70000000E+00  1.70000000E+00  1.70000000E+00  1.70000000E+00  1.30000000E+00
  1.30000000E+00  1.30000000E+00  1.30000000E+00  1.30000000E+00  1.30000000E+00
  1.30000000E+00  1.30000000E+00  1.30000000E+00  1.30000000E+00  1.30000000E+00
  1.30000000E+00  1.30000000E+00  1.30000000E+00  1.30000000E+00  1.30000000E+00
  1.30000000E+00  1.30000000E+00  1.30000000E+00  1.30000000E+00  1.30000000E+00
  1.30000000E+00  1.30000000E+00  1.30000000E+00  1.30000000E+00  1.30000000E+00
  1.30000000E+00  1.30000000E+00  1.30000000E+00  1.30000000E+00  1.30000000E+00
  1.30000000E+00  1.30000000E+00  1.30000000E+00  1.30000000E+00  1.30000000E+00
%FLAG SCREEN                                                                    
%FORMAT(5E16.8)                                                                 
  8.50000000E-01  7.20000000E-01  7.90000000E-01  7.20000000E-01  7.20000000E-01
  7.90000000E-01  7.20000000E-01  7.20000000E-01  7.20000000E-01  7.20000000E-01
  7.20000000E-01  7.20000000E-01  7.20000000E-01  7.20000000E-01  7.90000000E-01
  7.20000000E-01  7.20000000E-01  7.20000000E-01  7.90000000E-01  7.90000000E-01
  7.20000000E-01  7.20000000E-01  7.20000000E-01  7.20000000E-01  7.20000000E-01
  7.20000000E-01  7.90000000E-01  8.50000000E-01  7.20000000E-01  7.20000000E-01
  7.20000000E-01  8.50000000E-01  7.20000000E-01  7.20000000E-01  7.20000000E-01
  7.20000000E-01  7.20000000E-01  7.20000000E-01  7.90000000E-01  7.20000000E-01
  7.20000000E-01  7.20000000E-01  7.20000000E-01  7.20000000E-01  8.50000000E-01
  8.50000000E-01  8.50000000E-01  8.50000000E-01  8.50000000E-01  8.50000000E-01
  8.50000000E-01  8.50000000E-01  8.50000000E-01  8.50000000E-01  8.50000000E-01
  8.50000000E-01  8.50000000E-01  8.50000000E-01  8.50000000E-01  8.50000000E-01
  8.50000000E-01  8.50000000E-01  8.50000000E-01  8.50000000E-01  8.50000000E-01
  8.50000000E-01  8.50000000E-01  8.50000000E-01  8.50000000E-01  8.50000000E-01
  8.50000000E-01  8.50000000E-01  8.50000000E-01  8.50000000E-01  8.50000000E-01
  8.50000000E-01  8.50000000E-01  8.50000000E-01  8.50000000E-01  8.50000000E-01
%FLAG IPOL                                                                      
%FORMAT(1I8)                                                                    
       0
