%VERSION  VERSION_STAMP = V0001.000  DATE = 09/01/26  08:18:24                  
%FLAG TITLE                                                                     
%FORMAT(20a4)                                                                   
MOL                                                                             
%FLAG POINTERS                                                                  
%FORMAT(10I8)                                                                   
      83      16      38      51      85      74     145     122       0       0
     469       1      51      74     122      38      75      36      21       0
       0       0       0       0       0       0       0       0      83       0
       0
%FLAG ATOM_NAME                                                                 
%FORMAT(20a4)                                                                   
O1  C1  N1  C2  C3  N2  C4  C5  C6  C7  C8  C9  C10 C11 C12 C13 C14 C15 N3  C16 
C17 C18 C19 C20 N4  N5  N6  O2  C21 C22 C23 C24 O3  C25 C26 C27 C28 C29 C30 N7  
C31 C32 C33 C34 C35 H1  H2  H3  H4  H5  H6  H7  H8  H9  H10 H11 H12 H13 H14 H15 
H16 H17 H18 H19 H20 H21 H22 H23 H24 H25 H26 H27 H28 H29 H30 H31 H32 H33 H34 H35 
H36 H37 H38 
%FLAG CHARGE                                                                    
%FORMAT(5E16.8)                                                                 
 -1.11720921E+01  1.03794221E+01 -9.83821977E+00  6.41060514E+00  2.30147649E+00
 -1.21907187E+01 -3.46770369E+00 -1.95525279E+00  7.08118578E+00  9.47559600E-01
 -1.73111850E+00 -1.73111850E+00 -2.76250068E+00  5.04757710E-01 -4.46993019E+00
 -2.59667775E+00 -2.59667775E+00 -1.22271633E+00 -8.05061214E+00  5.81655816E+00
 -2.08280889E+00  1.39582818E+00  1.49422860E+00  1.28521882E+01 -9.16217244E+00
  1.79307432E+00 -1.15529382E+01 -1.07894238E+01 -1.04049333E+00  6.48713880E-01
  2.84814549E+00  2.84814549E+00 -3.70277136E+00 -4.08179520E-01  1.90969704E+00
  1.90969704E+00  1.35027243E+00 -2.23769844E+00 -9.45737370E-01 -1.24531198E+01
 -2.35067670E+00 -1.25733870E+00  1.53249543E+00 -1.76756310E+00 -2.71512270E+00
  5.94958095E+00  1.39765041E+00  1.39765041E+00  3.04312410E+00  2.94290145E+00
  2.94290145E+00  1.61631801E+00  1.61631801E+00  2.46001050E+00  2.46001050E+00
  1.38853926E+00  1.38853926E+00  8.94714930E-01  3.33468090E+00  1.28831661E+00
  1.28831661E+00  1.17898281E+00  1.17898281E+00  1.17898281E+00  1.47965076E+00
  1.47965076E+00  1.47965076E+00  1.47965076E+00  1.97620844E+00  1.97620844E+00
  1.97620844E+00  1.97620844E+00  1.11216164E+00  1.11216164E+00  1.11216164E+00
  8.12350134E+00  2.78801190E+00  2.62401120E+00  1.90787481E+00  1.90787481E+00
  1.90787481E+00  2.58756660E+00  2.56934430E+00
%FLAG ATOMIC_NUMBER                                                             
%FORMAT(10I8)                                                                   
       8       6       7       6       6       7       6       6       6       6
       6       6       6       6       6       6       6       6       7       6
       6       6       6       6       7       7       7       8       6       6
       6       6       8       6       6       6       6       6       6       7
       6       6       6       6       6       1       1       1       1       1
       1       1       1       1       1       1       1       1       1       1
       1       1       1       1       1       1       1       1       1       1
       1       1       1       1       1       1       1       1       1       1
       1       1       1
%FLAG MASS                                                                      
%FORMAT(5E16.8)                                                                 
  1.60000000E+01  1.20100000E+01  1.40100000E+01  1.20100000E+01  1.20100000E+01
  1.40100000E+01  1.20100000E+01  1.20100000E+01  1.20100000E+01  1.20100000E+01
  1.20100000E+01  1.20100000E+01  1.20100000E+01  1.20100000E+01  1.20100000E+01
  1.20100000E+01  1.20100000E+01  1.20100000E+01  1.40100000E+01  1.20100000E+01
  1.20100000E+01  1.20100000E+01  1.20100000E+01  1.20100000E+01  1.40100000E+01
  1.40100000E+01  1.40100000E+01  1.60000000E+01  1.20100000E+01  1.20100000E+01
  1.20100000E+01  1.20100000E+01  1.60000000E+01  1.20100000E+01  1.20100000E+01
  1.20100000E+01  1.20100000E+01  1.20100000E+01  1.20100000E+01  1.40100000E+01
  1.20100000E+01  1.20100000E+01  1.20100000E+01  1.20100000E+01  1.20100000E+01
  1.00800000E+00  1.00800000E+00  1.00800000E+00  1.00800000E+00  1.00800000E+00
  1.00800000E+00  1.00800000E+00  1.00800000E+00  1.00800000E+00  1.00800000E+00
  1.00800000E+00  1.00800000E+00  1.00800000E+00  1.00800000E+00  1.00800000E+00
  1.00800000E+00  1.00800000E+00  1.00800000E+00  1.00800000E+00  1.00800000E+00
  1.00800000E+00  1.00800000E+00  1.00800000E+00  1.00800000E+00  1.00800000E+00
  1.00800000E+00  1.00800000E+00  1.00800000E+00  1.00800000E+00  1.00800000E+00
  1.00800000E+00  1.00800000E+00  1.00800000E+00  1.00800000E+00  1.00800000E+00
  1.00800000E+00  1.00800000E+00  1.00800000E+00
%FLAG ATOM_TYPE_INDEX                                                           
%FORMAT(10I8)                                                                   
       1       2       3       2       4       5       2       2       2       2
       2       2       2       4       2       2       2       4       6       2
       2       2       4       2       5       7       8       1       2       4
       4       4       9       2       4       4       2       2       4      10
       2       2       4       2       2      11      12      12      13      13
      13      12      12      13      13      14      14      15      15      12
      12      12      12      12      12      12      12      12      16      16
      16      16      14      14      14      11      13      13      16      16
      16      13      13
%FLAG NUMBER_EXCLUDED_ATOMS                                                     
%FORMAT(10I8)                                                                   
       7      12      10      10      10      10       8      12      12      14
      10       9      14      10       9       8       7       7      12       6
       8      13       9      11       7       6      15       3      10       4
      12      11       8      10      13      12       9      11       4      13
       6       5       8       5       4       2       1       1       1       1
       1       1       1       1       1       3       2       1       1       1
       1       2       1       1       3       2       3       2       2       1
       2       1       2       1       1       3       1       1       2       1
       1       1       1
%FLAG NONBONDED_PARM_INDEX                                                      
%FORMAT(10I8)                                                                   
       1       2       4       7      11      16      22      29      37      46
      56      67      79      92     106     121       2       3       5       8
      12      17      23      30      38      47      57      68      80      93
     107     122       4       5       6       9      13      18      24      31
      39      48      58      69      81      94     108     123       7       8
       9      10      14      19      25      32      40      49      59      70
      82      95     109     124      11      12      13      14      15      20
      26      33      41      50      60      71      83      96     110     125
      16      17      18      19      20      21      27      34      42      51
      61      72      84      97     111     126      22      23      24      25
      26      27      28      35      43      52      62      73      85      98
     112     127      29      30      31      32      33      34      35      36
      44      53      63      74      86      99     113     128      37      38
      39      40      41      42      43      44      45      54      64      75
      87     100     114     129      46      47      48      49      50      51
      52      53      54      55      65      76      88     101     115     130
      56      57      58      59      60      61      62      63      64      65
      66      77      89     102     116     131      67      68      69      70
      71      72      73      74      75      76      77      78      90     103
     117     132      79      80      81      82      83      84      85      86
      87      88      89      90      91     104     118     133      92      93
      94      95      96      97      98      99     100     101     102     103
     104     105     119     134     106     107     108     109     110     111
     112     113     114     115     116     117     118     119     120     135
     121     122     123     124     125     126     127     128     129     130
     131     132     133     134     135     136
%FLAG RESIDUE_LABEL                                                             
%FORMAT(20a4)                                                                   
MOL 
%FLAG RESIDUE_POINTER                                                           
%FORMAT(10I8)                                                                   
       1
%FLAG BOND_FORCE_CONSTANT                                                       
%FORMAT(5E16.8)                                                                 
  5.90600000E+02  3.36070000E+02  2.62840000E+02  2.61660000E+02  4.73590000E+02
  3.86490000E+02  3.54250000E+02  2.43910000E+02  3.44220000E+02  3.60690000E+02
  2.39730000E+02  2.96500000E+02  2.52360000E+02  3.42020000E+02  3.22020000E+02
  3.86240000E+02  2.26810000E+02  3.42750000E+02  3.17460000E+02  4.19720000E+02
  3.68720000E+02  3.32450000E+02  3.67290000E+02  3.10840000E+02  2.81780000E+02
  2.90410000E+02  2.54790000E+02  2.52920000E+02  3.51190000E+02  3.43340000E+02
  2.88790000E+02  2.53870000E+02  2.16590000E+02  3.49850000E+02  3.45250000E+02
  2.19760000E+02  4.31010000E+02  3.52860000E+02
%FLAG BOND_EQUIL_VALUE                                                          
%FORMAT(5E16.8)                                                                 
  1.21900000E+00  1.37980000E+00  1.49070000E+00  1.45560000E+00  1.01320000E+00
  1.33920000E+00  1.39860000E+00  1.51470000E+00  1.09690000E+00  1.08600000E+00
  1.52030000E+00  1.45280000E+00  1.46690000E+00  1.09840000E+00  1.42740000E+00
  1.37300000E+00  1.53840000E+00  1.09790000E+00  1.39670000E+00  1.31580000E+00
  1.08090000E+00  1.38300000E+00  1.08180000E+00  1.40300000E+00  1.46870000E+00
  1.35700000E+00  1.46390000E+00  1.46620000E+00  1.36220000E+00  1.36880000E+00
  1.46100000E+00  1.50180000E+00  1.51560000E+00  1.09310000E+00  1.09620000E+00
  1.51090000E+00  1.03380000E+00  1.09110000E+00
%FLAG ANGLE_FORCE_CONSTANT                                                      
%FORMAT(5E16.8)                                                                 
  8.72100000E+01  7.79600000E+01  7.69000000E+01  5.73700000E+01  6.70900000E+01
  6.14400000E+01  6.70600000E+01  6.58400000E+01  4.83900000E+01  8.31500000E+01
  6.36700000E+01  4.49000000E+01  5.46200000E+01  6.07400000E+01  6.81700000E+01
  6.68100000E+01  6.21900000E+01  4.38100000E+01  6.06600000E+01  6.55100000E+01
  4.38000000E+01  6.06500000E+01  6.40000000E+01  6.02800000E+01  4.36900000E+01
  7.66300000E+01  7.69600000E+01  6.70300000E+01  4.29500000E+01  7.19900000E+01
  4.42000000E+01  6.71800000E+01  6.52900000E+01  4.32800000E+01  4.80600000E+01
  8.66800000E+01  6.80100000E+01  6.37700000E+01  9.39400000E+01  8.81800000E+01
  7.54900000E+01  7.72200000E+01  4.32300000E+01  7.70000000E+01  6.22000000E+01
  5.03500000E+01  8.26500000E+01  4.80800000E+01  4.81000000E+01  6.55700000E+01
  4.79000000E+01  7.83600000E+01  9.56300000E+01  6.16400000E+01  6.00600000E+01
  7.75900000E+01  6.43500000E+01  4.29100000E+01  8.26200000E+01  7.90000000E+01
  6.20200000E+01  4.39500000E+01  7.55500000E+01  7.50600000E+01  5.49800000E+01
  5.86200000E+01  4.71000000E+01  4.68800000E+01  5.52900000E+01  3.56400000E+01
  3.57700000E+01  3.59300000E+01  3.57700000E+01  3.58000000E+01  3.56300000E+01
%FLAG ANGLE_EQUIL_VALUE                                                         
%FORMAT(5E16.8)                                                                 
  2.14762857E+00  2.13977458E+00  2.12860447E+00  2.04657396E+00  2.05390434E+00
  2.10015559E+00  2.00870030E+00  1.95511867E+00  1.89350852E+00  2.04622489E+00
  2.09474507E+00  2.09230160E+00  2.04936649E+00  2.10888224E+00  2.14570870E+00
  2.01917228E+00  2.11027850E+00  1.91288168E+00  2.10486798E+00  1.95284974E+00
  1.90118797E+00  2.17695011E+00  2.02510640E+00  1.95424600E+00  1.91061275E+00
  2.10259905E+00  1.99089793E+00  2.19998847E+00  2.21447470E+00  1.90223517E+00
  2.22773921E+00  2.11411823E+00  1.94028336E+00  1.90555129E+00  1.89403212E+00
  2.13925098E+00  1.96681238E+00  2.08025883E+00  1.81235067E+00  1.95843479E+00
  2.19038915E+00  2.06350366E+00  1.91026369E+00  2.08025883E+00  2.11743436E+00
  2.06577259E+00  2.09212707E+00  2.09736306E+00  1.89822091E+00  1.92474992E+00
  1.90799476E+00  2.16525640E+00  1.84830447E+00  2.16927066E+00  2.21098404E+00
  1.96052919E+00  1.93836350E+00  1.94045789E+00  1.94656655E+00  2.07886256E+00
  2.10888224E+00  1.93068405E+00  1.93539644E+00  1.96663784E+00  1.86994656E+00
  2.20138473E+00  1.86488511E+00  1.89350852E+00  1.86017271E+00  1.89455572E+00
  1.87622975E+00  1.86087085E+00  1.89420665E+00  1.88024401E+00  1.91619781E+00
%FLAG DIHEDRAL_FORCE_CONSTANT                                                   
%FORMAT(5E16.8)                                                                 
  2.50000000E+00  2.00000000E+00  1.00000000E+00  5.80000000E-01  0.00000000E+00
  0.00000000E+00  4.80000000E+00  3.62500000E+00  2.12250000E+00  3.00000000E+00
  2.00000000E+00  5.00000000E-01  3.77000000E+00  5.85000000E-01  2.40000000E-01
  4.00000000E+00  2.10000000E-01  1.55555556E-01  4.75000000E+00  1.70000000E+00
  7.53000000E-01  1.02000000E+00  1.70000000E-01  1.00000000E-01  2.87500000E+00
  3.32000000E-01  0.00000000E+00  2.64000000E+00  1.82500000E+00  0.00000000E+00
  1.56000000E-01  6.50000000E-01  6.00000000E-01  1.09000000E-01  1.05000000E+01
  1.10000000E+00
%FLAG DIHEDRAL_PERIODICITY                                                      
%FORMAT(5E16.8)                                                                 
  2.00000000E+00  1.00000000E+00  2.00000000E+00  2.00000000E+00  2.00000000E+00
  1.00000000E+00  2.00000000E+00  2.00000000E+00  2.00000000E+00  1.00000000E+00
  2.00000000E+00  3.00000000E+00  2.00000000E+00  2.00000000E+00  2.00000000E+00
  2.00000000E+00  3.00000000E+00  3.00000000E+00  2.00000000E+00  2.00000000E+00
  2.00000000E+00  1.00000000E+00  3.00000000E+00  4.00000000E+00  2.00000000E+00
  2.00000000E+00  2.00000000E+00  2.00000000E+00  2.00000000E+00  3.00000000E+00
  3.00000000E+00  1.00000000E+00  2.00000000E+00  3.00000000E+00  2.00000000E+00
  2.00000000E+00
%FLAG DIHEDRAL_PHASE                                                            
%FORMAT(5E16.8)                                                                 
  3.14159400E+00  0.00000000E+00  3.14159400E+00  3.14159400E+00  0.00000000E+00
  0.00000000E+00  3.14159400E+00  3.14159400E+00  3.14159400E+00  3.14159400E+00
  3.14159400E+00  0.00000000E+00  3.14159400E+00  3.14159400E+00  3.14159400E+00
  3.14159400E+00  0.00000000E+00  0.00000000E+00  3.14159400E+00  3.14159400E+00
  3.14159400E+00  3.14159400E+00  0.00000000E+00  3.14159400E+00  3.14159400E+00
  0.00000000E+00  3.14159400E+00  3.14159400E+00  3.14159400E+00  0.00000000E+00
  0.00000000E+00  3.14159400E+00  3.14159400E+00  0.00000000E+00  3.14159400E+00
  3.14159400E+00
%FLAG SCEE_SCALE_FACTOR                                                         
%FORMAT(5E16.8)                                                                 
  1.20000000E+00  1.20000000E+00  1.20000000E+00  1.20000000E+00  1.20000000E+00
  1.20000000E+00  1.20000000E+00  1.20000000E+00  1.20000000E+00  1.20000000E+00
  1.20000000E+00  1.20000000E+00  1.20000000E+00  1.20000000E+00  1.20000000E+00
  1.20000000E+00  1.20000000E+00  1.20000000E+00  1.20000000E+00  1.20000000E+00
  1.20000000E+00  1.20000000E+00  1.20000000E+00  1.20000000E+00  1.20000000E+00
  1.20000000E+00  1.20000000E+00  1.20000000E+00  1.20000000E+00  1.20000000E+00
  1.20000000E+00  1.20000000E+00  1.20000000E+00  1.20000000E+00  0.00000000E+00
  0.00000000E+00
%FLAG SCNB_SCALE_FACTOR                                                         
%FORMAT(5E16.8)                                                                 
  2.00000000E+00  2.00000000E+00  2.00000000E+00  2.00000000E+00  2.00000000E+00
  2.00000000E+00  2.00000000E+00  2.00000000E+00  2.00000000E+00  2.00000000E+00
  2.00000000E+00  2.00000000E+00  2.00000000E+00  2.00000000E+00  2.00000000E+00
  2.00000000E+00  2.00000000E+00  2.00000000E+00  2.00000000E+00  2.00000000E+00
  2.00000000E+00  2.00000000E+00  2.00000000E+00  2.00000000E+00  2.00000000E+00
  2.00000000E+00  2.00000000E+00  2.00000000E+00  2.00000000E+00  2.00000000E+00
  2.00000000E+00  2.00000000E+00  2.00000000E+00  2.00000000E+00  0.00000000E+00
  0.00000000E+00
%FLAG SOLTY                                                                     
%FORMAT(5E16.8)                                                                 
  0.00000000E+00  0.00000000E+00  0.00000000E+00  0.00000000E+00  0.00000000E+00
  0.00000000E+00  0.00000000E+00  0.00000000E+00  0.00000000E+00  0.00000000E+00
  0.00000000E+00  0.00000000E+00  0.00000000E+00  0.00000000E+00  0.00000000E+00
  0.00000000E+00  0.00000000E+00  0.00000000E+00  0.00000000E+00  0.00000000E+00
  0.00000000E+00
%FLAG LENNARD_JONES_ACOEF                                                       
%FORMAT(5E16.8)                                                                 
  3.76435470E+05  5.17507491E+05  6.96551276E+05  5.17814271E+05  6.99381362E+05
  7.01825028E+05  6.30925504E+05  8.43969952E+05  8.48258258E+05  1.02073671E+06
  5.74782316E+05  7.69642101E+05  7.73425391E+05  9.31115275E+05  8.49322032E+05
  5.15491878E+05  7.01106848E+05  7.02755693E+05  8.52084164E+05  7.76656876E+05
  7.02078680E+05  6.04208667E+05  8.20152428E+05  8.22346035E+05  9.96191545E+05
  9.08092643E+05  8.22085792E+05  9.62429652E+05  6.01376873E+05  8.17329084E+05
  8.19347611E+05  9.93125065E+05  9.05243612E+05  8.18751801E+05  9.58637891E+05
  9.54790629E+05  3.27367585E+05  4.46121722E+05  4.47026838E+05  5.42502534E+05
  4.94433451E+05  4.46307018E+05  5.22690526E+05  5.20510209E+05  2.83662575E+05
  6.13063863E+05  8.78080588E+05  8.72740728E+05  1.08339010E+06  9.85071815E+05
  8.57202189E+05  1.00856479E+06  1.00141202E+06  5.42300297E+05  9.21656095E+05
  9.87857350E+02  1.71458823E+03  1.65195713E+03  2.23577481E+03  2.01475241E+03
  1.52360475E+03  1.82491629E+03  1.79157166E+03  9.46795083E+02  1.00942006E+03
  1.34728399E-01  3.86646725E+04  5.63013422E+04  5.58085097E+04  6.97998263E+04
  6.34160397E+04  5.45183252E+04  6.42436358E+04  6.37258620E+04  3.44374471E+04
  5.62691404E+04  5.24570081E+01  3.39005767E+03  5.27277400E+04  7.52549148E+04
  7.48403283E+04  9.27554496E+04  8.43518904E+04  7.35931098E+04  8.65595848E+04
  8.59636060E+04  4.65732396E+04  7.98194249E+04  9.04434904E+01  4.88692384E+03
  6.90855956E+03  5.68021765E+04  8.12662403E+04  8.07866982E+04  1.00235148E+05
  9.11435380E+04  7.93773615E+04  9.33839501E+04  9.27277603E+04  5.02224902E+04
  8.55808446E+04  9.47421632E+01  5.22955465E+03  7.41026906E+03  7.94617769E+03
  4.36069364E+04  6.27751680E+04  6.23418310E+04  7.75673747E+04  7.05112106E+04
  6.11299385E+04  7.19580450E+04  7.14263282E+04  3.86549715E+04  6.49071593E+04
  6.76796831E+01  3.94664935E+03  5.62610481E+03  6.02863188E+03  4.56536476E+03
  1.12566992E+04  1.74110867E+04  1.70902479E+04  2.19657590E+04  1.99003866E+04
  1.63679607E+04  1.93962554E+04  1.91715719E+04  1.02811573E+04  1.45326307E+04
  7.30589786E+00  8.33358592E+02  1.27542632E+03  1.35510742E+03  1.00402713E+03
  1.70079100E+02
%FLAG LENNARD_JONES_BCOEF                                                       
%FORMAT(5E16.8)                                                                 
  4.69350655E+02  4.98871431E+02  5.24668528E+02  5.21008860E+02  5.48900066E+02
  5.74088001E+02  5.62969425E+02  5.90251928E+02  6.17825399E+02  6.63431737E+02
  5.19385932E+02  5.44830041E+02  5.70234696E+02  6.12468585E+02  5.65406768E+02
  5.64804067E+02  5.97113873E+02  6.24158704E+02  6.72777963E+02  6.20851625E+02
  6.77820248E+02  6.46321327E+02  6.82622272E+02  7.13654906E+02  7.68900328E+02
  7.09588248E+02  7.75261695E+02  8.86629877E+02  6.53166727E+02  6.90283231E+02
  7.21590374E+02  7.77671659E+02  7.17661669E+02  7.83721154E+02  8.96356641E+02
  9.06156687E+02  3.67361018E+02  3.88758656E+02  4.06301077E+02  4.38146883E+02
  4.04310927E+02  4.41089616E+02  5.04545572E+02  5.10021392E+02  2.87011518E+02
  1.22328790E+03  1.32715352E+03  1.38141570E+03  1.50664821E+03  1.38866053E+03
  1.48748365E+03  1.70541695E+03  1.72139587E+03  9.65647936E+02  3.06326052E+03
  1.22938581E+01  1.46824710E+01  1.50468782E+01  1.71355763E+01  1.57231024E+01
  1.57004457E+01  1.81620725E+01  1.82287422E+01  1.01016461E+01  2.53805311E+01
  7.34107347E-02  9.23664132E+01  1.01040256E+02  1.05029928E+02  1.14981426E+02
  1.05935811E+02  1.12788003E+02  1.29412081E+02  1.30560951E+02  7.31636661E+01
  2.27570369E+02  1.73959275E+00  1.67944276E+01  1.01173582E+02  1.09570372E+02
  1.14083104E+02  1.24325688E+02  1.14599119E+02  1.22913863E+02  1.40899023E+02
  1.42233990E+02  7.98066064E+01  2.54229244E+02  2.14252117E+00  1.89134207E+01
  2.10929191E+01  1.11953944E+02  1.21392023E+02  1.26366740E+02  1.37787728E+02
  1.27000718E+02  1.36094315E+02  1.56025608E+02  1.57492664E+02  8.83545880E+01
  2.80652463E+02  2.33785449E+00  2.08590256E+01  2.32899892E+01  2.57122925E+01
  9.20079458E+01  1.00073628E+02  1.04122183E+02  1.13692208E+02  1.04776275E+02
  1.12023534E+02  1.28466555E+02  1.29650812E+02  7.27065100E+01  2.29254310E+02
  1.85338491E+00  1.69967767E+01  1.90347353E+01  2.10068861E+01  1.71467049E+01
  4.98382106E+01  5.61885732E+01  5.81215296E+01  6.45020662E+01  5.93436142E+01
  6.18000664E+01  7.11080405E+01  7.16117531E+01  3.99761520E+01  1.15651879E+02
  6.49206153E-01  8.32679019E+00  9.66228818E+00  1.06181419E+01  8.57284598E+00
  3.76172582E+00
%FLAG BONDS_INC_HYDROGEN                                                        
%FORMAT(10I8)                                                                   
       6     135       5      12     138       9      12     141       9      18
     144      10      30     147      10      33     150      10      39     153
      14      39     156      14      45     159      10      48     162      10
      51     165      18      51     168      18      57     171      21      60
     174      23      66     177      14      66     180      14      87     183
       9      87     186       9      87     189       9      90     192      14
      90     195      14      93     198      14      93     201      14     102
     204      34     102     207      34     105     210      34     105     213
      34     114     216      35     114     219      35     114     222      35
     117     225      37     120     228      10     123     231      10     126
     234      38     126     237      38     126     240      38     129     243
      10     132     246      10
%FLAG BONDS_WITHOUT_HYDROGEN                                                    
%FORMAT(10I8)                                                                   
       0       3       1       3       6       2       3       9       3       6
      12       4       9      15       6       9      18       7      12      21
       8      15      24       6      18      27       7      21      30       7
      21      33       7      24      36       7      24      39      11      27
      42      12      27      36       7      30      45       7      33      48
       7      36      51      11      39      54      13      42      57      15
      42      60      16      45      63       7      48      63       7      51
      66      17      54      69      19      54      66      13      57      72
      20      60      75      22      63      78      24      69      81       1
      69      84      25      72      75      26      75      87      27      78
      90      28      78      93      28      84      96      29      84      99
      16      90     102      17      93     105      17      96     108      30
      99     111      31      99     114      32     102     117      33     105
     117      33     108     120       7     108     111       7     111     123
       7     117     126      36     120     129       7     123     132       7
     129     132       7
%FLAG ANGLES_INC_HYDROGEN                                                       
%FORMAT(10I8)                                                                   
       3       6     135       4       6      12     138       9       6      12
     141       9       9      18     144      12      12       6     135      13
      21      12     138      18      21      12     141      18      21      30
     147      12      21      33     150      12      24      39     153      21
      24      39     156      21      27      18     144      12      30      45
     159      12      33      48     162      12      36      51     165      25
      36      51     168      25      42      57     171      29      42      60
     174      31      45      30     147      12      48      33     150      12
      51      66     177      34      51      66     180      34      54      39
     153      35      54      39     156      35      54      66     177      35
      54      66     180      35      63      45     159      12      63      48
     162      12      66      51     165      43      66      51     168      43
      72      57     171      46      75      60     174      48      75      87
     183      49      75      87     186      49      75      87     189      49
      78      90     192      51      78      90     195      51      78      93
     198      51      78      93     201      51      90     102     204      58
      90     102     207      58      93     105     210      58      93     105
     213      58      99     114     216      62      99     114     219      62
      99     114     222      62     102      90     192      34     102      90
     195      34     102     117     225      65     105      93     198      34
     105      93     201      34     105     117     225      65     108     120
     228      12     111     123     231      12     117     102     204      67
     117     102     207      67     117     105     210      67     117     105
     213      67     117     126     234      68     117     126     237      68
     117     126     240      68     120     129     243      12     123     132
     246      12     126     117     225      69     129     120     228      12
     129     132     246      12     132     123     231      12     132     129
     243      12     138      12     141      70     153      39     156      71
     165      51     168      72     177      66     180      71     183      87
     186      70     183      87     189      70     186      87     189      70
     192      90     195      71     198      93     201      71     204     102
     207      73     210     105     213      73     216     114     219      74
     216     114     222      74     219     114     222      74     234     126
     237      75     234     126     240      75     237     126     240      75
%FLAG ANGLES_WITHOUT_HYDROGEN                                                   
%FORMAT(10I8)                                                                   
       0       3       6       1       0       3       9       2       3       6
      12       3       3       9      15       5       3       9      18       6
       6       3       9       7       6      12      21       8       9      15
      24      10       9      18      27      11      12      21      30      14
      12      21      33      14      15       9      18      15      15      24
      36      15      15      24      39      16      18      27      42      17
      18      27      36      11      21      30      45      11      21      33
      48      11      24      36      27      11      24      36      51      19
      24      39      54      20      27      42      57      22      27      42
      60      23      27      36      51      19      30      21      33      11
      30      45      63      11      33      48      63      11      36      24
      39      19      36      27      42      17      36      51      66      24
      39      54      69      26      39      54      66      27      42      57
      72      28      42      60      75      30      45      63      48      11
      45      63      78      32      48      63      78      32      51      66
      54      33      54      69      81      36      54      69      84      37
      57      42      60      38      57      72      75      39      60      75
      72      40      60      75      87      41      63      78      90      42
      63      78      93      42      66      54      69      26      69      84
      96      44      69      84      99      45      72      75      87      47
      78      90     102      50      78      93     105      50      81      69
      84      52      84      96     108      53      84      99     111      54
      84      99     114      55      90      78      93      56      90     102
     117      57      93     105     117      57      96      84      99      59
      96     108     120      60      96     108     111      60      99     111
     108      61      99     111     123      61     102     117     105      63
     102     117     126      64     105     117     126      64     108     120
     129      11     108     111     123      11     111      99     114      66
     111     108     120      11     111     123     132      11     120     129
     132      11     123     132     129      11
%FLAG DIHEDRALS_INC_HYDROGEN                                                    
%FORMAT(10I8)                                                                   
       0       3       6     135       2       0       3      -6     135       1
       3       6      12     138       6       3       6      12     141       6
       3       9      18     144       8       9       3       6     135       1
      12      21      30     147       8      12      21      33     150       8
      15       9      18     144       8      15      24      39     153       5
      15      24      39     156       5      21      12       6     135       5
      21      30      45     159       8      21      33      48     162       8
      24      36      51     165       6      24      36      51     168       6
      27      42      57     171      16      27      42      60     174      16
      27      36      51     165       6      27      36      51     168       6
      30      21      12     138       5      30      21      12     141       5
      30      21      33     150       8      33      21      12     138       5
      33      21      12     141       5      33      21      30     147       8
      36      24      39     153       5      36      24      39     156       5
      36      27      18     144       8      36      51      66     177      18
      36      51      66     180      18      39      54      66     177       5
      39      54      66     180       5      42      27      18     144       8
      45      63      48     162       8      48      63      45     159       8
      54      66      51     165      18      54      66      51     168      18
      57      42      60     174      16      60      42      57     171      16
      60      75      87     183       5      60      75      87     186       5
      60      75      87     189       5      63      45      30     147       8
      63      48      33     150       8      63      78      90     192      26
      63      78      90     195      26      63      78      93     198      26
      63      78      93     201      26      66      54      39     153       5
      66      54      39     156       5      69      54      39     153      27
      69      54      39     156      27      69      54      66     177      27
      69      54      66     180      27      72      75      60     174      20
      72      75      87     183       5      72      75      87     186       5
      72      75      87     189       5      75      72      57     171      19
      78      63      45     159       8      78      63      48     162       8
      78      90     102     204      18      78      90     102     207      18
      78      93     105     210      18      78      93     105     213      18
      84      99     114     216      30      84      99     114     219      30
      84      99     114     222      30      87      75      60     174      20
      90      78      93     198       5      90      78      93     201       5
      90     102     117     225      18      93      78      90     192       5
      93      78      90     195       5      93     105     117     225      18
      96     108     120     228       8      99     111     123     231       8
     102     117     105     210      18     102     117     105     213      18
     102     117     126     234      18     102     117     126     237      18
     102     117     126     240      18     105     117     102     204      18
     105     117     102     207      18     105     117     126     234      18
     105     117     126     237      18     105     117     126     240      18
     108     120     129     243       8     108     111     123     231       8
     111      99     114     216      30     111      99     114     219      30
     111      99     114     222      30     111     108     120     228       8
     111     123     132     246       8     117     102      90     192      18
     117     102      90     195      18     117     105      93     198      18
     117     105      93     201      18     120     129     132     246       8
     123     132     129     243       8     126     117     102     204      18
     126     117     102     207      18     126     117     105     210      18
     126     117     105     213      18     129     132     123     231       8
     132     129     120     228       8     135       6      12     138       5
     135       6      12     141       5     147      30      45     159       8
     150      33      48     162       8     165      51      66     177      18
     165      51      66     180      18     168      51      66     177      18
     168      51      66     180      18     192      90     102     204      18
     192      90     102     207      18     195      90     102     204      18
     195      90     102     207      18     198      93     105     210      18
     198      93     105     213      18     201      93     105     210      18
     201      93     105     213      18     204     102     117     225      34
     207     102     117     225      34     210     105     117     225      34
     213     105     117     225      34     225     117     126     234      34
     225     117     126     237      34     225     117     126     240      34
     228     120     129     243       8     231     123     132     246       8
     243     129     132     246       8       3      12      -6    -135      36
       9      27     -18    -144      36      21      45     -30    -147      36
      21      48     -33    -150      36      30      63     -45    -159      36
      33      63     -48    -162      36      42     171     -57     -72      35
      42     174     -60     -75      35     108     129    -120    -228      36
     111     132    -123    -231      36     120     132    -129    -243      36
     123     129    -132    -246      36
%FLAG DIHEDRALS_WITHOUT_HYDROGEN                                                
%FORMAT(10I8)                                                                   
       0       3       6      12       1       0       3       9      15       3
       0       3       9      18       4       3       6      12      21       5
       3       9      15      24       7       3       9      18      27       8
       6       3       9      15       3       6       3       9      18       9
       6      12      21      30       5       6      12      21      33       5
       9       3       6      12      10       9       3      -6      12      11
       9       3      -6      12      12       9      15      24      36       7
       9      15      24      39       7       9      18      27      42       8
       9      18     -27      36       8      12      21      30      45       8
      12      21      33      48       8      15       9      18      27       8
      15      24     -36      27       8      15      24      36      51       8
      15      24      39      54       5      18       9      15      24       7
      18      27      42      57      13      18      27      42      60      14
      18      27     -36      24       8      18      27      36      51       8
      21      30      45      63       8      21      33     -48      63       8
      24      36      27      42       8      24      36      51      66      15
      24      39      54      69       5      24      39     -54      66       5
      27      42      57      72      16      27      42      60      75      16
      27      36      24      39       8      27      36      51      66      15
      30      21      33      48       8      30      45     -63      48       8
      30      45      63      78       8      33      21      30      45       8
      33      48     -63      45       8      33      48      63      78       8
      36      24      39      54       5      36      27      42      57      13
      36      27      42      60      14      36      51     -66      54      17
      39      24      36      51       8      39      54      69      81       1
      39      54      69      84       1      39      54     -66      51       5
      42      27      36      51       8      42      57     -72      75      19
      42      60     -75      72      20      42      60      75      87      20
      45      63      78      90      21      45      63      78      93      21
      48      63      78      90      21      48      63      78      93      21
      51      66      54      69      22      51      66     -54      69      23
      51      66     -54      69      24      54      69      84      96      25
      54      69      84      99      25      57      42     -60      75      16
      57      72     -75      60       7      57      72      75      87       7
      60      42     -57      72      16      63      78      90     102       5
      63      78      93     105       5      66      54      69      81       1
      66      54      69      84       1      69      84      96     108      28
      69      84      99     111      16      69      84      99     114      16
      78      90     102     117      18      78      93    -105     117      18
      81      69      84      96      25      81      69      84      99      25
      84      96     108     120      29      84      96    -108     111      29
      84      99    -111     108      13      84      99     111     123      13
      90      78      93     105       5      90     102    -117     105      31
      90     102     117     126      31      93      78      90     102       5
      93     105    -117     102      31      93     105     117     126      31
      96      84     -99     111      16      96      84      99     114      16
      96     108     120     129       8      96     108    -111      99       8
      96     108     111     123       8      99      84     -96     108      32
      99     111     108     120       8      99     111     123     132       8
     108     120     129     132       8     108     111      99     114      33
     108     111    -123     132       8     111     108     120     129       8
     111     123    -132     129       8     114      99     111     123      33
     120     108     111     123       8     120     129    -132     123       8
       0       3      -6      -9      35       3      18      -9     -15      35
      30      33     -21     -12      36      39      36     -24     -15      35
      18      36     -27     -42      36      51      24     -36     -27      35
      27      57     -42     -60      35      69      39     -54     -66      36
      45      48     -63     -78      35      84      54     -69     -81      35
      87      60     -75     -72      36      90      93     -78     -63      36
      69      99     -84     -96      35     114     111     -99     -84      35
     111     120    -108     -96      35     108     123    -111     -99      36
%FLAG EXCLUDED_ATOMS_LIST                                                       
%FORMAT(10I8)                                                                   
       2       3       4       5       6       7      46       3       4       5
       6       7       8       9      10      46      47      48      49       4
       5       6       7       8      11      12      46      47      48       5
       6       7       9      10      13      14      15      46      49       8
      11      12      16      17      46      47      48      50      51       7
       9      10      13      14      18      19      49      52      53       9
      10      13      15      18      20      21      49      11      12      16
      17      22      46      47      48      50      51      54      55      10
      13      14      15      18      19      23      24      52      53      56
      57      13      14      15      18      20      21      23      25      26
      49      56      57      58      59      12      16      17      22      27
      47      48      50      51      54      16      17      22      27      47
      48      50      51      55      14      15      18      19      20      21
      23      49      52      53      56      57      60      61      18      19
      23      24      28      29      52      53      60      61      18      20
      21      25      26      30      49      58      59      17      22      27
      31      32      50      54      55      22      27      31      32      51
      54      55      19      23      24      56      57      60      61      23
      24      28      29      33      34      52      53      56      57      60
      61      21      25      26      30      58      59      25      26      30
      58      59      62      63      64      27      31      32      35      36
      50      51      54      55      65      66      67      68      24      28
      29      52      53      56      57      60      61      28      29      33
      34      37      38      39      52      53      60      61      26      30
      58      59      62      63      64      30      58      59      62      63
      64      31      32      35      36      40      54      55      65      66
      67      68      69      70      71      72      29      33      34      33
      34      37      38      39      41      42      73      74      75      59
      62      63      64      32      35      36      40      43      65      66
      67      68      69      70      76      35      36      40      43      65
      66      67      68      71      72      76      34      37      38      39
      41      42      44      77      37      38      39      41      42      45
      73      74      75      78      36      40      43      65      66      69
      70      71      72      76      79      80      81      40      43      67
      68      69      70      71      72      76      79      80      81      38
      39      41      42      44      45      77      78      82      39      41
      42      44      45      73      74      75      77      78      83      42
      73      74      75      43      65      66      67      68      69      70
      71      72      76      79      80      81      42      44      45      77
      82      83      44      45      78      82      83      69      70      71
      72      76      79      80      81      45      77      78      82      83
      77      78      82      83      47      48      48       0       0      54
      55      53       0       0       0      57      60      61      60      61
       0       0      61       0      63      64      64       0      66      69
      70      69      70      68      71      72      71      72      70      76
      76      72      76      76      74      75      75       0      79      80
      81      82      83      80      81      81       0      83       0
%FLAG HBOND_ACOEF                                                               
%FORMAT(5E16.8)                                                                 

%FLAG HBOND_BCOEF                                                               
%FORMAT(5E16.8)                                                                 

%FLAG HBCUT                                                                     
%FORMAT(5E16.8)                                                                 

%FLAG AMBER_ATOM_TYPE                                                           
%FORMAT(20a4)                                                                   
o   c   ns  ca  c3  nb  ca  ca  ca  ca  ca  ca  ca  c6  cc  ca  ca  c6  n   cc  
cd  ca  c6  c   nd  na  nh  o   cc  c3  c6  c6  os  cd  c6  c6  ca  ca  c3  nx  
ca  ca  c3  ca  ca  hn  h1  h1  ha  ha  ha  h1  h1  ha  ha  hc  hc  h4  h4  h1  
h1  h1  h1  h1  h1  h1  h1  h1  hx  hx  hx  hx  hc  hc  hc  hn  ha  ha  hx  hx  
hx  ha  ha  
%FLAG TREE_CHAIN_CLASSIFICATION                                                 
%FORMAT(20a4)                                                                   
BLA BLA BLA BLA BLA BLA BLA BLA BLA BLA BLA BLA BLA BLA BLA BLA BLA BLA BLA BLA 
BLA BLA BLA BLA BLA BLA BLA BLA BLA BLA BLA BLA BLA BLA BLA BLA BLA BLA BLA BLA 
BLA BLA BLA BLA BLA BLA BLA BLA BLA BLA BLA BLA BLA BLA BLA BLA BLA BLA BLA BLA 
BLA BLA BLA BLA BLA BLA BLA BLA BLA BLA BLA BLA BLA BLA BLA BLA BLA BLA BLA BLA 
BLA BLA BLA 
%FLAG JOIN_ARRAY                                                                
%FORMAT(10I8)                                                                   
       0       0       0       0       0       0       0       0       0       0
       0       0       0       0       0       0       0       0       0       0
       0       0       0       0       0       0       0       0       0       0
       0       0       0       0       0       0       0       0       0       0
       0       0       0       0       0       0       0       0       0       0
       0       0       0       0       0       0       0       0       0       0
       0       0       0       0       0       0       0       0       0       0
       0       0       0       0       0       0       0       0       0       0
       0       0       0
%FLAG IROTAT                                                                    
%FORMAT(10I8)                                                                   
       0       0       0       0       0       0       0       0       0       0
       0       0       0       0       0       0       0       0       0       0
       0       0       0       0       0       0       0       0       0       0
       0       0       0       0       0       0       0       0       0       0
       0       0       0       0       0       0       0       0       0       0
       0       0       0       0       0       0       0       0       0       0
       0       0       0       0       0       0       0       0       0       0
       0       0       0       0       0       0       0       0       0       0
       0       0       0
%FLAG RADIUS_SET                                                                
%FORMAT(1a80)                                                                   
modified Bondi radii (mbondi)                                                   
%FLAG RADII                                                                     
%FORMAT(5E16.8)                                                                 
  1.50000000E+00  1.70000000E+00  1.55000000E+00  1.70000000E+00  1.70000000E+00
  1.55000000E+00  1.70000000E+00  1.70000000E+00  1.70000000E+00  1.70000000E+00
  1.70000000E+00  1.70000000E+00  1.70000000E+00  1.70000000E+00  1.70000000E+00
  1.70000000E+00  1.70000000E+00  1.70000000E+00  1.55000000E+00  1.70000000E+00
  1.70000000E+00  1.70000000E+00  1.70000000E+00  1.70000000E+00  1.55000000E+00
  1.55000000E+00  1.55000000E+00  1.50000000E+00  1.70000000E+00  1.70000000E+00
  1.70000000E+00  1.70000000E+00  1.50000000E+00  1.70000000E+00  1.70000000E+00
  1.70000000E+00  1.70000000E+00  1.70000000E+00  1.70000000E+00  1.55000000E+00
  1.70000000E+00  1.70000000E+00  1.70000000E+00  1.70000000E+00  1.70000000E+00
  1.30000000E+00  1.30000000E+00  1.30000000E+00  1.30000000E+00  1.30000000E+00
  1.30000000E+00  1.30000000E+00  1.30000000E+00  1.30000000E+00  1.30000000E+00
  1.30000000E+00  1.30000000E+00  1.30000000E+00  1.30000000E+00  1.30000000E+00
  1.30000000E+00  1.30000000E+00  1.30000000E+00  1.30000000E+00  1.30000000E+00
  1.30000000E+00  1.30000000E+00  1.30000000E+00  1.30000000E+00  1.30000000E+00
  1.30000000E+00  1.30000000E+00  1.30000000E+00  1.30000000E+00  1.30000000E+00
  1.30000000E+00  1.30000000E+00  1.30000000E+00  1.30000000E+00  1.30000000E+00
  1.30000000E+00  1.30000000E+00  1.30000000E+00
%FLAG SCREEN                                                                    
%FORMAT(5E16.8)                                                                 
  8.50000000E-01  7.20000000E-01  7.90000000E-01  7.20000000E-01  7.20000000E-01
  7.90000000E-01  7.20000000E-01  7.20000000E-01  7.20000000E-01  7.20000000E-01
  7.20000000E-01  7.20000000E-01  7.20000000E-01  7.20000000E-01  7.20000000E-01
  7.20000000E-01  7.20000000E-01  7.20000000E-01  7.90000000E-01  7.20000000E-01
  7.20000000E-01  7.20000000E-01  7.20000000E-01  7.20000000E-01  7.90000000E-01
  7.90000000E-01  7.90000000E-01  8.50000000E-01  7.20000000E-01  7.20000000E-01
  7.20000000E-01  7.20000000E-01  8.50000000E-01  7.20000000E-01  7.20000000E-01
  7.20000000E-01  7.20000000E-01  7.20000000E-01  7.20000000E-01  7.90000000E-01
  7.20000000E-01  7.20000000E-01  7.20000000E-01  7.20000000E-01  7.20000000E-01
  8.50000000E-01  8.50000000E-01  8.50000000E-01  8.50000000E-01  8.50000000E-01
  8.50000000E-01  8.50000000E-01  8.50000000E-01  8.50000000E-01  8.50000000E-01
  8.50000000E-01  8.50000000E-01  8.50000000E-01  8.50000000E-01  8.50000000E-01
  8.50000000E-01  8.50000000E-01  8.50000000E-01  8.50000000E-01  8.50000000E-01
  8.50000000E-01  8.50000000E-01  8.50000000E-01  8.50000000E-01  8.50000000E-01
  8.50000000E-01  8.50000000E-01  8.50000000E-01  8.50000000E-01  8.50000000E-01
  8.50000000E-01  8.50000000E-01  8.50000000E-01  8.50000000E-01  8.50000000E-01
  8.50000000E-01  8.50000000E-01  8.50000000E-01
%FLAG IPOL                                                                      
%FORMAT(1I8)                                                                    
       0
