MOL
    70
  31.2410000   5.4880000 -21.7600000  30.2970000   5.7970000 -22.3980000
  30.1570000   7.1310000 -22.9220000  29.1580000   4.8040000 -22.7140000
  31.1920000   8.1150000 -22.6380000  28.9820000   3.5850000 -22.0560000
  28.2630000   5.2690000 -23.6910000  32.2830000   8.1540000 -23.6970000
  27.8150000   2.8230000 -22.2870000  27.1650000   4.4260000 -24.0020000
  32.0410000   7.7090000 -25.0030000  33.5780000   8.6020000 -23.3980000
  26.9420000   3.2060000 -23.3090000  27.4300000   1.4910000 -21.4040000
  33.0310000   7.7440000 -25.9730000  34.6050000   8.4990000 -24.3470000
  25.6820000   2.3840000 -23.6050000  25.8320000   0.9970000 -21.3750000
  34.3440000   8.1160000 -25.6700000  25.5440000   0.9530000 -22.8960000
  25.0730000   0.4030000 -19.9230000  35.3040000   8.1530000 -26.6550000
  25.8810000   0.6110000 -18.9750000  23.4740000  -0.3580000 -19.3650000
  36.6960000   8.4610000 -26.3380000  35.0470000   7.7010000 -28.0340000
  21.6910000  -1.0460000 -19.3040000  22.9160000   0.8590000 -19.7300000
  37.2700000   9.4410000 -27.3820000  35.6970000   8.6850000 -29.0340000
  21.1580000   0.1430000 -18.9240000  20.3030000  -2.2410000 -19.1820000
  21.9260000   1.2180000 -18.9360000  37.1390000   8.8980000 -28.7530000
  19.8400000   0.3740000 -18.7400000  19.0600000  -1.8180000 -18.6620000
  37.7480000   9.7870000 -29.7350000  18.8110000  -0.4470000 -18.6950000
  31.1380000   7.0790000 -22.9760000  31.3980000   7.0710000 -22.5220000
  30.1490000   8.3020000 -22.7860000  27.2360000   5.3110000 -23.6030000
  26.6140000   4.8550000 -24.7620000  31.2380000   8.0600000 -25.5490000
  34.0660000   7.7280000 -23.6500000  27.6820000   0.5620000 -20.9370000
  27.9170000   2.3580000 -21.0110000  32.4480000   8.5230000 -25.6290000
  35.4950000   8.2460000 -23.8910000  25.3690000   3.3830000 -23.8270000
  25.3670000   1.6380000 -24.3040000  25.9250000   1.7710000 -22.3190000
  25.8180000   1.0280000 -23.9270000  37.7230000   8.7620000 -26.3560000
  36.6260000   7.4030000 -26.4800000  34.3710000   8.0670000 -28.7780000
  36.0000000   8.1740000 -28.1500000  22.3520000   1.6610000 -19.4090000
  37.8450000   8.9850000 -26.6030000  36.2600000   9.0880000 -27.3590000
  34.6980000   8.3090000 -28.9690000  35.7220000   9.7470000 -28.9010000
  21.2590000  -2.0160000 -18.8620000  38.0920000   9.2570000 -28.7980000
  18.8960000   0.3450000 -19.1560000  19.8140000  -2.1720000 -19.2710000
  36.7440000   9.4310000 -29.6350000  37.7620000  10.8510000 -29.6170000
  38.3620000   9.3380000 -28.9830000  18.6170000  -0.3290000 -19.7010000
