MOL
    73
  25.2010000   3.6740000 -26.7320000  25.4950000   3.3270000 -28.3760000
  25.8140000   2.1880000 -26.1620000  25.1800000   4.1350000 -29.4800000
  26.1380000   2.1040000 -28.5300000  26.3600000   1.4530000 -27.2410000
  25.8620000   1.8870000 -24.7080000  24.5650000   5.3130000 -29.3140000
  25.5010000   3.7170000 -30.7720000  26.4810000   1.7080000 -29.8610000
  27.1020000   0.1380000 -27.1970000  24.9710000   1.1710000 -24.2370000
  26.8820000   2.3560000 -23.7870000  26.1530000   2.5100000 -30.9620000
  27.9030000   3.4360000 -24.0120000  26.6360000   1.8990000 -22.4220000
  28.7820000   3.9090000 -22.8220000  27.6410000   2.2060000 -21.3270000
  29.7530000   4.8910000 -23.0150000  28.6150000   3.3020000 -21.5790000
  30.5480000   5.2150000 -21.9360000  29.4340000   3.6800000 -20.5100000
  31.6690000   6.2510000 -21.9990000  30.4100000   4.6370000 -20.6840000
  32.4000000   6.4160000 -21.0180000  31.8320000   7.0030000 -23.1380000
  32.7910000   8.0970000 -23.1340000  33.6920000   8.0630000 -24.3340000
  35.0790000   8.0960000 -24.1880000  33.1540000   7.9760000 -25.6240000
  35.8970000   8.1170000 -25.3160000  33.9830000   8.0160000 -26.7500000
  35.3700000   8.1150000 -26.6180000  36.2480000   8.1700000 -27.6910000
  37.4010000   7.2640000 -27.7990000  35.6510000   8.4880000 -29.0040000
  38.4550000   7.9030000 -28.7460000  36.7260000   9.1500000 -29.8880000
  37.9020000   8.2700000 -30.0750000  38.9080000   8.9440000 -30.8920000
  26.0250000   2.9130000 -30.3920000  25.6100000   1.5440000 -30.3910000
  26.8520000   1.1490000 -27.4410000  26.3220000  -0.2890000 -26.6010000
  27.2140000  -0.4290000 -28.0980000  25.8080000   1.5500000 -31.1190000
  28.1940000   2.8000000 -24.8220000  28.0520000   3.0550000 -23.0230000
  25.7820000   2.0420000 -21.7920000  26.4660000   1.8620000 -23.4780000
  27.3500000   2.6860000 -20.4160000  27.4840000   2.7800000 -22.2160000
  29.0040000   4.6130000 -20.6050000  31.0120000   5.4750000 -20.6740000
  31.3480000   6.1460000 -23.1370000  33.1340000   8.9230000 -22.5470000
  33.0990000   8.1910000 -24.1540000  35.3560000   8.4150000 -25.1300000
  32.5610000   8.5680000 -25.0210000  36.5520000   7.5660000 -25.8930000
  33.7330000   7.7150000 -25.7950000  36.4550000   6.9020000 -27.4540000
  37.6740000   8.1270000 -27.2300000  35.6070000   8.7920000 -30.0290000
  34.7060000   8.0690000 -28.7250000  38.4580000   7.5900000 -27.7230000
  39.3930000   8.3230000 -29.0420000  37.6560000   9.5760000 -30.2010000
  36.4760000   8.2930000 -30.4780000  37.0380000   7.8180000 -29.7760000
  39.8290000   9.3920000 -31.1990000  38.7030000   8.0920000 -31.5070000
  38.9850000   8.6350000 -29.8700000
