MOL
    80
  30.7560000   4.8740000 -21.6880000  29.7850000   5.2210000 -22.3510000
  29.5990000   6.5350000 -22.7650000  28.7140000   4.2250000 -22.7440000
  30.5170000   7.6010000 -22.4100000  28.2920000   3.3610000 -21.7840000
  28.1610000   4.2610000 -24.0170000  31.6770000   7.6690000 -23.3740000
  27.2810000   2.4940000 -22.0790000  27.1280000   3.3710000 -24.3300000
  31.4490000   7.6410000 -24.7530000  32.9960000   7.8180000 -22.9280000
  26.6810000   2.4470000 -23.3540000  26.8550000   1.5360000 -20.9570000
  26.5390000   3.4730000 -25.6320000  32.5150000   7.7440000 -25.6540000
  34.0580000   7.9330000 -23.8410000  25.5930000   1.4320000 -23.6290000
  25.6410000   0.7830000 -21.2650000  26.8200000   2.5860000 -26.6180000
  25.6120000   4.3950000 -26.0590000  33.8430000   7.8940000 -25.2230000
  25.5450000   0.2880000 -22.6230000  24.7520000   0.3890000 -20.2580000
  26.0090000   2.9210000 -27.6160000  25.2460000   4.0570000 -27.3360000
  34.8460000   8.0660000 -26.1630000  25.1280000   0.2380000 -19.0960000
  23.3310000   0.4310000 -20.6300000  34.5450000   8.2960000 -27.5830000
  36.1010000   8.7130000 -25.7350000  22.8070000   1.7020000 -20.7400000
  22.2580000  -0.4140000 -20.3370000  35.7330000   7.7840000 -28.4390000
  37.2690000   8.2110000 -26.6180000  21.7460000   1.7150000 -19.9040000
  21.4330000   0.4170000 -19.5220000  22.0160000  -1.8390000 -20.6580000
  37.0270000   8.4080000 -28.0680000  21.1290000   2.8600000 -19.4350000
  20.4590000   0.2360000 -18.5270000  38.1150000   7.8190000 -28.8470000
  20.2020000   2.6650000 -18.4100000  19.8930000   1.3810000 -17.9460000
  29.6540000   5.5810000 -23.0020000  30.9080000   7.6480000 -23.4050000
  30.5120000   8.5720000 -21.9600000  27.3400000   3.9590000 -24.5640000
  31.8830000   7.8670000 -23.8440000  33.5240000   7.9090000 -23.8100000
  26.5430000   2.4110000 -20.4260000  27.6140000   1.7510000 -21.6800000
  31.9930000   7.6440000 -24.7700000  33.6180000   7.7270000 -24.7510000
  25.7290000   0.5230000 -24.1760000  25.0670000   1.2850000 -22.7090000
  25.3400000   4.7680000 -26.9820000  26.1750000   0.2490000 -23.4870000
  25.9530000  -0.3070000 -21.8330000  25.9290000   2.1300000 -26.9580000
  24.6730000   3.3220000 -27.7790000  34.6130000   7.4470000 -28.2300000
  34.8570000   9.1700000 -28.1170000  36.7300000   8.6460000 -24.8720000
  36.1920000   7.8170000 -26.3130000  35.1010000   7.8760000 -29.2980000
  35.7010000   8.6570000 -27.8230000  37.2110000   9.0570000 -25.9650000
  36.9720000   7.3060000 -26.1290000  22.8260000  -1.9480000 -21.3490000
  22.1010000  -2.5790000 -19.8890000  22.0510000  -0.8640000 -20.2180000
  36.9980000   7.5680000 -28.6440000  20.5850000   2.2610000 -20.0760000
  21.0340000   0.7340000 -17.8300000  38.1240000   8.6990000 -28.2380000
  37.7790000   6.9870000 -28.2640000  37.4530000   7.9650000 -29.6750000
  19.1930000   2.5440000 -18.2290000  19.4340000   1.8450000 -17.1460000
