%VERSION  VERSION_STAMP = V0001.000  DATE = 09/01/26  08:20:18                  
%FLAG TITLE                                                                     
%FORMAT(20a4)                                                                   
MOL                                                                             
%FLAG POINTERS                                                                  
%FORMAT(10I8)                                                                   
      70      15      31      44      71      63     128     103       0       0
     399       1      44      63     103      29      58      32      19       0
       0       0       0       0       0       0       0       0      70       0
       0
%FLAG ATOM_NAME                                                                 
%FORMAT(20a4)                                                                   
Cl1 C1  C2  C3  S1  C4  C5  C6  O1  N1  C7  C8  C9  C10 C11 C12 C13 N2  C14 C15 
C16 C17 C18 O2  N3  C19 C20 C21 C22 C23 C24 C25 N4  C26 C27 C28 C29 N5  C30 H1  
H2  H3  H4  H5  H6  H7  H8  H9  H10 H11 H12 H13 H14 H15 H16 H17 H18 H19 H20 H21 
H22 H23 H24 H25 H26 H27 H28 H29 H30 H31 
%FLAG CHARGE                                                                    
%FORMAT(5E16.8)                                                                 
 -1.31929452E+00  2.40534360E-01 -2.89005678E+00 -1.50880644E+00  3.30734745E+00
  1.25059645E+01 -1.78760763E+00 -2.04089760E+00 -1.03885332E+01 -8.05061214E+00
 -1.45778400E+00 -2.25956520E+00  6.14091510E-01  1.42133940E+00 -2.00445300E+00
  6.73496208E+00 -9.31159530E-01 -1.17898281E+01 -2.94472368E+00  6.22838214E+00
 -1.71289620E+00  1.02700883E+01 -3.15792459E+00 -1.09898691E+01 -9.69244137E+00
  2.24680959E+00 -2.10103119E+00 -1.64911815E+00 -1.64911815E+00 -2.85178995E+00
 -2.85178995E+00  1.43227278E+00 -1.11702699E+01  2.96659044E+00  2.96659044E+00
  1.10791584E+00  1.10791584E+00 -1.22891191E+01  1.49605083E+00  2.22312060E+00
  2.78801190E+00  2.49645510E+00  1.48876191E+00  1.48876191E+00  1.25187201E+00
  1.25187201E+00  2.73334500E+00  1.35209466E+00  1.35209466E+00  2.82445650E+00
  3.20712480E+00  5.87669175E+00  1.49787306E+00  1.49787306E+00  2.92467915E+00
  2.92467915E+00  2.41445475E+00  2.41445475E+00  1.74387411E+00  1.74387411E+00
  1.74387411E+00  1.74387411E+00  2.02176418E+00  2.02176418E+00  2.02176418E+00
  2.02176418E+00  8.08705674E+00  1.95038744E+00  1.95038744E+00  1.95038744E+00
%FLAG ATOMIC_NUMBER                                                             
%FORMAT(10I8)                                                                   
      17       6       6       6      16       6       6       6       8       7
       6       6       6       6       6       6       6       7       6       6
       6       6       6       8       7       6       6       6       6       6
       6       6       7       6       6       6       6       7       6       1
       1       1       1       1       1       1       1       1       1       1
       1       1       1       1       1       1       1       1       1       1
       1       1       1       1       1       1       1       1       1       1
%FLAG MASS                                                                      
%FORMAT(5E16.8)                                                                 
  3.54500000E+01  1.20100000E+01  1.20100000E+01  1.20100000E+01  3.20600000E+01
  1.20100000E+01  1.20100000E+01  1.20100000E+01  1.60000000E+01  1.40100000E+01
  1.20100000E+01  1.20100000E+01  1.20100000E+01  1.20100000E+01  1.20100000E+01
  1.20100000E+01  1.20100000E+01  1.40100000E+01  1.20100000E+01  1.20100000E+01
  1.20100000E+01  1.20100000E+01  1.20100000E+01  1.60000000E+01  1.40100000E+01
  1.20100000E+01  1.20100000E+01  1.20100000E+01  1.20100000E+01  1.20100000E+01
  1.20100000E+01  1.20100000E+01  1.40100000E+01  1.20100000E+01  1.20100000E+01
  1.20100000E+01  1.20100000E+01  1.40100000E+01  1.20100000E+01  1.00800000E+00
  1.00800000E+00  1.00800000E+00  1.00800000E+00  1.00800000E+00  1.00800000E+00
  1.00800000E+00  1.00800000E+00  1.00800000E+00  1.00800000E+00  1.00800000E+00
  1.00800000E+00  1.00800000E+00  1.00800000E+00  1.00800000E+00  1.00800000E+00
  1.00800000E+00  1.00800000E+00  1.00800000E+00  1.00800000E+00  1.00800000E+00
  1.00800000E+00  1.00800000E+00  1.00800000E+00  1.00800000E+00  1.00800000E+00
  1.00800000E+00  1.00800000E+00  1.00800000E+00  1.00800000E+00  1.00800000E+00
%FLAG ATOM_TYPE_INDEX                                                           
%FORMAT(10I8)                                                                   
       1       2       2       2       3       2       2       2       4       5
       2       2       6       6       2       2       6       7       2       2
       2       2       2       4       8       6       2       2       2       2
       2       2       9       6       6       6       6      10       6      11
      11      11      12      12      12      12      11      13      13      11
      11      14      12      12      11      11      11      11      12      12
      12      12      15      15      15      15      14      15      15      15
%FLAG NUMBER_EXCLUDED_ATOMS                                                     
%FORMAT(10I8)                                                                   
       7      11      10      10       8      11       7       6       3      12
       5       5      11      10       4      12       9      10      11       9
       6       9       4       3       7      10      12      10       9       8
       7      13      15      12      11      13      12      13       8       1
       1       1       1       1       3       2       1       1       1       1
       1       2       1       1       1       1       1       1       3       2
       3       2       2       1       2       1       3       2       1       1
%FLAG NONBONDED_PARM_INDEX                                                      
%FORMAT(10I8)                                                                   
       1       2       4       7      11      16      22      29      37      46
      56      67      79      92     106       2       3       5       8      12
      17      23      30      38      47      57      68      80      93     107
       4       5       6       9      13      18      24      31      39      48
      58      69      81      94     108       7       8       9      10      14
      19      25      32      40      49      59      70      82      95     109
      11      12      13      14      15      20      26      33      41      50
      60      71      83      96     110      16      17      18      19      20
      21      27      34      42      51      61      72      84      97     111
      22      23      24      25      26      27      28      35      43      52
      62      73      85      98     112      29      30      31      32      33
      34      35      36      44      53      63      74      86      99     113
      37      38      39      40      41      42      43      44      45      54
      64      75      87     100     114      46      47      48      49      50
      51      52      53      54      55      65      76      88     101     115
      56      57      58      59      60      61      62      63      64      65
      66      77      89     102     116      67      68      69      70      71
      72      73      74      75      76      77      78      90     103     117
      79      80      81      82      83      84      85      86      87      88
      89      90      91     104     118      92      93      94      95      96
      97      98      99     100     101     102     103     104     105     119
     106     107     108     109     110     111     112     113     114     115
     116     117     118     119     120
%FLAG RESIDUE_LABEL                                                             
%FORMAT(20a4)                                                                   
MOL 
%FLAG RESIDUE_POINTER                                                           
%FORMAT(10I8)                                                                   
       1
%FLAG BOND_FORCE_CONSTANT                                                       
%FORMAT(5E16.8)                                                                 
  1.99240000E+02  3.86240000E+02  2.96500000E+02  2.26530000E+02  2.78120000E+02
  3.54250000E+02  2.13480000E+02  5.90600000E+02  3.17460000E+02  3.60690000E+02
  2.52360000E+02  2.39730000E+02  3.42020000E+02  2.26810000E+02  3.86490000E+02
  3.42750000E+02  2.62840000E+02  3.36070000E+02  2.61660000E+02  4.73590000E+02
  2.43910000E+02  3.44220000E+02  3.10840000E+02  2.52920000E+02  2.16590000E+02
  3.49850000E+02  2.19760000E+02  4.31010000E+02  3.52860000E+02
%FLAG BOND_EQUIL_VALUE                                                          
%FORMAT(5E16.8)                                                                 
  1.73550000E+00  1.37300000E+00  1.45280000E+00  1.76220000E+00  1.47280000E+00
  1.39860000E+00  1.78470000E+00  1.21900000E+00  1.39670000E+00  1.08600000E+00
  1.46690000E+00  1.52030000E+00  1.09840000E+00  1.53840000E+00  1.33920000E+00
  1.09790000E+00  1.49070000E+00  1.37980000E+00  1.45560000E+00  1.01320000E+00
  1.51470000E+00  1.09690000E+00  1.40300000E+00  1.46620000E+00  1.51560000E+00
  1.09310000E+00  1.51090000E+00  1.03380000E+00  1.09110000E+00
%FLAG ANGLE_FORCE_CONSTANT                                                      
%FORMAT(5E16.8)                                                                 
  6.39200000E+01  6.36900000E+01  6.58400000E+01  6.21000000E+01  6.21900000E+01
  6.40000000E+01  1.00960000E+02  7.83100000E+01  6.79300000E+01  6.30900000E+01
  6.36700000E+01  4.49000000E+01  6.23300000E+01  7.66300000E+01  8.66800000E+01
  6.55100000E+01  4.80600000E+01  6.52900000E+01  7.69600000E+01  6.68100000E+01
  6.06600000E+01  6.02800000E+01  4.32300000E+01  4.38000000E+01  8.31500000E+01
  4.32800000E+01  6.81700000E+01  6.70900000E+01  4.36900000E+01  7.79600000E+01
  6.70600000E+01  6.14400000E+01  7.69000000E+01  5.73700000E+01  8.72100000E+01
  6.58400000E+01  4.83900000E+01  5.46200000E+01  6.07400000E+01  4.38100000E+01
  6.71800000E+01  7.72200000E+01  6.55700000E+01  4.79000000E+01  7.75900000E+01
  6.43500000E+01  4.29100000E+01  7.55500000E+01  7.50600000E+01  5.49800000E+01
  4.71000000E+01  4.68800000E+01  5.52900000E+01  3.57700000E+01  3.59300000E+01
  3.56400000E+01  3.57700000E+01  3.56300000E+01
%FLAG ANGLE_EQUIL_VALUE                                                         
%FORMAT(5E16.8)                                                                 
  2.15042109E+00  2.10696238E+00  1.97833156E+00  2.11743436E+00  2.11027850E+00
  2.02510640E+00  1.57830192E+00  2.15914774E+00  1.96506705E+00  2.09544320E+00
  2.09474507E+00  2.09230160E+00  2.13576032E+00  2.10259905E+00  2.13925098E+00
  1.95284974E+00  1.89403212E+00  1.94028336E+00  1.99089793E+00  2.01917228E+00
  2.10486798E+00  1.95424600E+00  1.91026369E+00  1.90118797E+00  2.04622489E+00
  1.90555129E+00  2.14570870E+00  2.05390434E+00  1.91061275E+00  2.13977458E+00
  2.00870030E+00  2.10015559E+00  2.12860447E+00  2.04657396E+00  2.14762857E+00
  1.95511867E+00  1.89350852E+00  2.04936649E+00  2.10888224E+00  1.91288168E+00
  2.11411823E+00  2.06350366E+00  1.92474992E+00  1.90799476E+00  1.96052919E+00
  1.93836350E+00  1.94045789E+00  1.93539644E+00  1.96663784E+00  1.86994656E+00
  1.86488511E+00  1.89350852E+00  1.86017271E+00  1.87622975E+00  1.86087085E+00
  1.89455572E+00  1.89420665E+00  1.91619781E+00
%FLAG DIHEDRAL_FORCE_CONSTANT                                                   
%FORMAT(5E16.8)                                                                 
  4.00000000E+00  7.00000000E-01  1.21500000E+00  2.87500000E+00  3.62500000E+00
  5.85000000E-01  4.00000000E-01  2.50000000E+00  1.61000000E+00  0.00000000E+00
  0.00000000E+00  1.02000000E+00  1.70000000E-01  1.00000000E-01  2.10000000E-01
  1.55555556E-01  4.80000000E+00  2.40000000E-01  0.00000000E+00  1.00000000E+00
  3.00000000E+00  2.00000000E+00  5.00000000E-01  5.80000000E-01  2.12250000E+00
  2.00000000E+00  7.53000000E-01  3.32000000E-01  1.56000000E-01  1.09000000E-01
  1.05000000E+01  1.10000000E+00
%FLAG DIHEDRAL_PERIODICITY                                                      
%FORMAT(5E16.8)                                                                 
  2.00000000E+00  2.00000000E+00  2.00000000E+00  2.00000000E+00  2.00000000E+00
  2.00000000E+00  2.00000000E+00  2.00000000E+00  3.00000000E+00  2.00000000E+00
  2.00000000E+00  1.00000000E+00  3.00000000E+00  4.00000000E+00  3.00000000E+00
  3.00000000E+00  2.00000000E+00  2.00000000E+00  1.00000000E+00  2.00000000E+00
  1.00000000E+00  2.00000000E+00  3.00000000E+00  2.00000000E+00  2.00000000E+00
  1.00000000E+00  2.00000000E+00  2.00000000E+00  3.00000000E+00  3.00000000E+00
  2.00000000E+00  2.00000000E+00
%FLAG DIHEDRAL_PHASE                                                            
%FORMAT(5E16.8)                                                                 
  3.14159400E+00  3.14159400E+00  0.00000000E+00  3.14159400E+00  3.14159400E+00
  3.14159400E+00  3.14159400E+00  3.14159400E+00  3.14159400E+00  0.00000000E+00
  3.14159400E+00  3.14159400E+00  0.00000000E+00  3.14159400E+00  0.00000000E+00
  0.00000000E+00  3.14159400E+00  3.14159400E+00  0.00000000E+00  3.14159400E+00
  3.14159400E+00  3.14159400E+00  0.00000000E+00  3.14159400E+00  3.14159400E+00
  0.00000000E+00  3.14159400E+00  0.00000000E+00  0.00000000E+00  0.00000000E+00
  3.14159400E+00  3.14159400E+00
%FLAG SCEE_SCALE_FACTOR                                                         
%FORMAT(5E16.8)                                                                 
  1.20000000E+00  1.20000000E+00  1.20000000E+00  1.20000000E+00  1.20000000E+00
  1.20000000E+00  1.20000000E+00  1.20000000E+00  1.20000000E+00  1.20000000E+00
  1.20000000E+00  1.20000000E+00  1.20000000E+00  1.20000000E+00  1.20000000E+00
  1.20000000E+00  1.20000000E+00  1.20000000E+00  1.20000000E+00  1.20000000E+00
  1.20000000E+00  1.20000000E+00  1.20000000E+00  1.20000000E+00  1.20000000E+00
  1.20000000E+00  1.20000000E+00  1.20000000E+00  1.20000000E+00  1.20000000E+00
  0.00000000E+00  0.00000000E+00
%FLAG SCNB_SCALE_FACTOR                                                         
%FORMAT(5E16.8)                                                                 
  2.00000000E+00  2.00000000E+00  2.00000000E+00  2.00000000E+00  2.00000000E+00
  2.00000000E+00  2.00000000E+00  2.00000000E+00  2.00000000E+00  2.00000000E+00
  2.00000000E+00  2.00000000E+00  2.00000000E+00  2.00000000E+00  2.00000000E+00
  2.00000000E+00  2.00000000E+00  2.00000000E+00  2.00000000E+00  2.00000000E+00
  2.00000000E+00  2.00000000E+00  2.00000000E+00  2.00000000E+00  2.00000000E+00
  2.00000000E+00  2.00000000E+00  2.00000000E+00  2.00000000E+00  2.00000000E+00
  0.00000000E+00  0.00000000E+00
%FLAG SOLTY                                                                     
%FORMAT(5E16.8)                                                                 
  0.00000000E+00  0.00000000E+00  0.00000000E+00  0.00000000E+00  0.00000000E+00
  0.00000000E+00  0.00000000E+00  0.00000000E+00  0.00000000E+00  0.00000000E+00
  0.00000000E+00  0.00000000E+00  0.00000000E+00  0.00000000E+00  0.00000000E+00
  0.00000000E+00  0.00000000E+00  0.00000000E+00  0.00000000E+00
%FLAG LENNARD_JONES_ACOEF                                                       
%FORMAT(5E16.8)                                                                 
  3.17107030E+06  1.49062160E+06  6.96551276E+05  3.67899711E+06  1.73376823E+06
  4.26366419E+06  1.11993097E+06  5.17507491E+05  1.30884564E+06  3.76435470E+05
  1.50866868E+06  7.01106848E+05  1.75889445E+06  5.15491878E+05  7.02078680E+05
  1.80018612E+06  8.43969952E+05  2.09089895E+06  6.30925504E+05  8.52084164E+05
  1.02073671E+06  1.64251971E+06  7.69642101E+05  1.90820499E+06  5.74782316E+05
  7.76656876E+05  9.31115275E+05  8.49322032E+05  1.49942414E+06  6.99381362E+05
  1.74537186E+06  5.17814271E+05  7.02755693E+05  8.48258258E+05  7.73425391E+05
  7.01825028E+05  1.75809166E+06  8.17329084E+05  2.04935397E+06  6.01376873E+05
  8.18751801E+05  9.93125065E+05  9.05243612E+05  8.19347611E+05  9.54790629E+05
  1.94172346E+06  8.78080588E+05  2.29022351E+06  6.13063863E+05  8.57202189E+05
  1.08339010E+06  9.85071815E+05  8.72740728E+05  1.00141202E+06  9.21656095E+05
  1.66104821E+05  7.52549148E+04  1.95762765E+05  5.27277400E+04  7.35931098E+04
  9.27554496E+04  8.43518904E+04  7.48403283E+04  8.59636060E+04  7.98194249E+04
  6.90855956E+03  1.25585106E+05  5.63013422E+04  1.48672098E+05  3.86646725E+04
  5.45183252E+04  6.97998263E+04  6.34160397E+04  5.58085097E+04  6.37258620E+04
  5.62691404E+04  4.88692384E+03  3.39005767E+03  1.79601155E+05  8.12662403E+04
  2.11783234E+05  5.68021765E+04  7.93773615E+04  1.00235148E+05  9.11435380E+04
  8.07866982E+04  9.27277603E+04  8.55808446E+04  7.41026906E+03  5.22955465E+03
  7.94617769E+03  4.18912581E+03  1.71458823E+03  5.15374979E+03  9.87857350E+02
  1.52360475E+03  2.23577481E+03  2.01475241E+03  1.65195713E+03  1.79157166E+03
  1.00942006E+03  9.04434904E+01  5.24570081E+01  9.47421632E+01  1.34728399E-01
  4.00807245E+04  1.74110867E+04  4.80874647E+04  1.12566992E+04  1.63679607E+04
  2.19657590E+04  1.99003866E+04  1.70902479E+04  1.91715719E+04  1.45326307E+04
  1.27542632E+03  8.33358592E+02  1.35510742E+03  7.30589786E+00  1.70079100E+02
%FLAG LENNARD_JONES_BCOEF                                                       
%FORMAT(5E16.8)                                                                 
  1.82923847E+03  9.81118883E+02  5.24668528E+02  2.00414708E+03  1.07629402E+03
  2.19459223E+03  9.38113535E+02  4.98871431E+02  1.03157656E+03  4.69350655E+02
  1.11967364E+03  5.97113873E+02  1.22973599E+03  5.64804067E+02  6.77820248E+02
  1.10195051E+03  5.90251928E+02  1.20800124E+03  5.62969425E+02  6.72777963E+02
  6.63431737E+02  1.01742263E+03  5.44830041E+02  1.11546536E+03  5.19385932E+02
  6.20851625E+02  6.12468585E+02  5.65406768E+02  1.02737257E+03  5.48900066E+02
  1.12747567E+03  5.21008860E+02  6.24158704E+02  6.17825399E+02  5.70234696E+02
  5.74088001E+02  1.29413346E+03  6.90283231E+02  1.42122969E+03  6.53166727E+02
  7.83721154E+02  7.77671659E+02  7.17661669E+02  7.21590374E+02  9.06156687E+02
  2.52276692E+03  1.32715352E+03  2.78689013E+03  1.22328790E+03  1.48748365E+03
  1.50664821E+03  1.38866053E+03  1.38141570E+03  1.72139587E+03  3.06326052E+03
  2.08087638E+02  1.09570372E+02  2.29782888E+02  1.01173582E+02  1.22913863E+02
  1.24325688E+02  1.14599119E+02  1.14083104E+02  1.42233990E+02  2.54229244E+02
  2.10929191E+01  1.92900608E+02  1.01040256E+02  2.13489607E+02  9.23664132E+01
  1.12788003E+02  1.14981426E+02  1.05935811E+02  1.05029928E+02  1.30560951E+02
  2.27570369E+02  1.89134207E+01  1.67944276E+01  2.30684859E+02  1.21392023E+02
  2.54804909E+02  1.11953944E+02  1.36094315E+02  1.37787728E+02  1.27000718E+02
  1.26366740E+02  1.57492664E+02  2.80652463E+02  2.32899892E+01  2.08590256E+01
  2.57122925E+01  2.93366416E+01  1.46824710E+01  3.30984635E+01  1.22938581E+01
  1.57004457E+01  1.71355763E+01  1.57231024E+01  1.50468782E+01  1.82287422E+01
  2.53805311E+01  2.14252117E+00  1.73959275E+00  2.33785449E+00  7.34107347E-02
  1.08976363E+02  5.61885732E+01  1.21416565E+02  4.98382106E+01  6.18000664E+01
  6.45020662E+01  5.93436142E+01  5.81215296E+01  7.16117531E+01  1.15651879E+02
  9.66228818E+00  8.32679019E+00  1.06181419E+01  6.49206153E-01  3.76172582E+00
%FLAG BONDS_INC_HYDROGEN                                                        
%FORMAT(10I8)                                                                   
      21     117      10      30     120      10      33     123      10      36
     126      13      36     129      13      39     132      13      39     135
      13      42     138      10      48     141      16      48     144      16
      60     147      10      66     150      10      72     153      20      75
     156      22      75     159      22      81     162      10      84     165
      10      87     168      10      90     171      10      99     174      13
      99     177      13     102     180      13     102     183      13     105
     186      26     105     189      26     108     192      26     108     195
      26     111     198      28     114     201      29     114     204      29
     114     207      29
%FLAG BONDS_WITHOUT_HYDROGEN                                                    
%FORMAT(10I8)                                                                   
       0       3       1       3       6       2       3       9       3       6
      12       4       6      15       5       9      18       6       9      21
       6      12      18       7      15      24       8      15      27       9
      18      30       6      21      33       6      27      36      11      27
      39      11      30      42       6      33      42       6      36      45
      12      39      48      14      45      51      15      45      54       6
      48      54      12      51      57      15      54      60       6      57
      63      17      57      66       6      60      66       6      63      69
       8      63      72      18      72      75      19      75      78      21
      78      81       6      78      84       6      81      87       6      84
      90       6      87      93       6      90      93       6      93      96
      23      96      99      24      96     102      24      99     105      14
     102     108      14     105     111      25     108     111      25     111
     114      27
%FLAG ANGLES_INC_HYDROGEN                                                       
%FORMAT(10I8)                                                                   
       9      21     117      12      18      30     120      12      21      33
     123      12      27      36     126      17      27      36     129      17
      27      39     132      17      27      39     135      17      30      42
     138      12      33      21     117      12      33      42     138      12
      39      48     141      23      39      48     144      23      42      30
     120      12      42      33     123      12      45      36     126      24
      45      36     129      24      48      39     132      26      48      39
     135      26      54      48     141      29      54      48     144      29
      54      60     147      12      57      66     150      12      60      66
     150      12      63      72     153      34      66      60     147      12
      72      75     156      37      72      75     159      37      75      72
     153      38      78      75     156      40      78      75     159      40
      78      81     162      12      78      84     165      12      81      87
     168      12      84      90     171      12      87      81     162      12
      90      84     165      12      93      87     168      12      93      90
     171      12      96      99     174      44      96      99     177      44
      96     102     180      44      96     102     183      44      99     105
     186      47      99     105     189      47     102     108     192      47
     102     108     195      47     105      99     174      26     105      99
     177      26     105     111     198      50     108     102     180      26
     108     102     183      26     108     111     198      50     111     105
     186      51     111     105     189      51     111     108     192      51
     111     108     195      51     111     114     201      52     111     114
     204      52     111     114     207      52     114     111     198      53
     126      36     129      54     132      39     135      54     141      48
     144      55     156      75     159      56     174      99     177      54
     180     102     183      54     186     105     189      57     192     108
     195      57     201     114     204      58     201     114     207      58
     204     114     207      58
%FLAG ANGLES_WITHOUT_HYDROGEN                                                   
%FORMAT(10I8)                                                                   
       0       3       6       1       0       3       9       2       3       6
      12       3       3       6      15       4       3       9      18       5
       3       9      21       5       6       3       9       6       6      12
      18       7       6      15      24       8       6      15      27       9
       9      18      12      10       9      18      30      11       9      21
      33      11      12       6      15      13      12      18      30      10
      15      27      36      14      15      27      39      14      18       9
      21      11      18      30      42      11      21      33      42      11
      24      15      27      15      27      36      45      16      27      39
      48      18      30      42      33      11      36      27      39      19
      36      45      51      20      36      45      54      21      39      48
      54      22      45      51      57      25      45      54      48      21
      45      54      60      11      48      54      60      21      51      45
      54      27      51      57      63      28      51      57      66      27
      54      60      66      11      57      63      69      30      57      63
      72      31      57      66      60      11      63      57      66      32
      63      72      75      33      69      63      72      35      72      75
      78      36      75      78      81      39      75      78      84      39
      78      81      87      11      78      84      90      11      81      78
      84      11      81      87      93      11      84      90      93      11
      87      93      90      11      87      93      96      41      90      93
      96      41      93      96      99      42      93      96     102      42
      96      99     105      43      96     102     108      43      99      96
     102      45      99     105     111      46     102     108     111      46
     105     111     108      48     105     111     114      49     108     111
     114      49
%FLAG DIHEDRALS_INC_HYDROGEN                                                    
%FORMAT(10I8)                                                                   
       3       9      21     117       5       9      18      30     120       5
       9      21      33     123       5      12      18      30     120       5
      15      27      36     126      11      15      27      36     129      11
      15      27      39     132      11      15      27      39     135      11
      18       9      21     117       5      18      30      42     138       5
      21      33      42     138       5      27      39      48     141      16
      27      39      48     144      16      30      42      33     123       5
      33      42      30     120       5      36      27      39     132      10
      36      27      39     135      10      39      27      36     126      10
      39      27      36     129      10      42      33      21     117       5
      45      54      48     141      19      45      54      48     144      19
      45      54      60     147       5      48      54      60     147       5
      51      45      36     126      10      51      45      36     129      10
      51      57      66     150       5      54      45      36     126      10
      54      45      36     129      10      54      48      39     132      16
      54      48      39     135      16      54      60      66     150       5
      57      63      72     153       8      57      66      60     147       5
      60      54      48     141      19      60      54      48     144      19
      63      57      66     150       5      63      72      75     156      19
      63      72      75     159      19      69      63      72     153      26
      69      63     -72     153       8      75      78      81     162       5
      75      78      84     165       5      78      75      72     153      10
      78      81      87     168       5      78      84      90     171       5
      81      78      75     156      10      81      78      75     159      10
      81      78      84     165       5      84      78      75     156      10
      84      78      75     159      10      84      78      81     162       5
      87      93      90     171       5      90      93      87     168       5
      93      87      81     162       5      93      90      84     165       5
      93      96      99     174      28      93      96      99     177      28
      93      96     102     180      28      93      96     102     183      28
      96      93      87     168       5      96      93      90     171       5
      96      99     105     186      16      96      99     105     189      16
      96     102     108     192      16      96     102     108     195      16
      99      96     102     180      10      99      96     102     183      10
      99     105     111     198      16     102      96      99     174      10
     102      96      99     177      10     102     108     111     198      16
     105     111     108     192      16     105     111     108     195      16
     105     111     114     201      16     105     111     114     204      16
     105     111     114     207      16     108     111     105     186      16
     108     111     105     189      16     108     111     114     201      16
     108     111     114     204      16     108     111     114     207      16
     111     105      99     174      16     111     105      99     177      16
     111     108     102     180      16     111     108     102     183      16
     114     111     105     186      16     114     111     105     189      16
     114     111     108     192      16     114     111     108     195      16
     117      21      33     123       5     120      30      42     138       5
     123      33      42     138       5     132      39      48     141      16
     132      39      48     144      16     135      39      48     141      16
     135      39      48     144      16     147      60      66     150       5
     153      72      75     156      10     153      72      75     159      10
     162      81      87     168       5     165      84      90     171       5
     174      99     105     186      16     174      99     105     189      16
     177      99     105     186      16     177      99     105     189      16
     180     102     108     192      16     180     102     108     195      16
     183     102     108     192      16     183     102     108     195      16
     186     105     111     198      30     189     105     111     198      30
     192     108     111     198      30     195     108     111     198      30
     198     111     114     201      30     198     111     114     204      30
     198     111     114     207      30       9      33     -21    -117      32
      18      42     -30    -120      32      21      42     -33    -123      32
      30      33     -42    -138      32      54      66     -60    -147      32
      57      60     -66    -150      32      63      75     -72    -153      32
      78      87     -81    -162      32      78      90     -84    -165      32
      81      93     -87    -168      32      84      93     -90    -171      32
%FLAG DIHEDRALS_WITHOUT_HYDROGEN                                                
%FORMAT(10I8)                                                                   
       0       3       6      12       1       0       3       6      15       1
       0       3       9      18       2       0       3       9      21       2
       3       6     -12      18       3       3       6      15      24       4
       3       6      15      27       4       3       9     -18      12       5
       3       9      18      30       5       3       9      21      33       5
       6       3      -9      18       6       6       3       9      21       6
       6      12     -18       9       7       6      12      18      30       7
       6      15      27      36       8       6      15      27      39       8
       9       3      -6      12       1       9       3       6      15       1
       9      18      30      42       5       9      21     -33      42       5
      12       6      15      24       4      12       6      15      27       4
      12      18       9      21       5      12      18      30      42       5
      15       6      12      18       9      15      27      36      45      10
      15      27      39      48      12      15      27     -39      48      13
      15      27     -39      48      14      18       9      21      33       5
      18      30     -42      33       5      21       9      18      30       5
      21      33     -42      30       5      24      15      27      36       8
      24      15      27      39       8      27      36      45      51      10
      27      36      45      54      10      27      39     -48      54      15
      36      27      39      48      10      36      45      51      57      17
      36      45     -54      48       5      36      45      54      60       5
      39      27      36      45      10      39      48     -54      45      18
      39      48      54      60      18      45      51      57      63      17
      45      51      57      66      17      45      54     -60      66       5
      48      54      45      51       5      48      54      60      66       5
      51      45      54      60       5      51      57      63      69      20
      51      57      63      72      20      51      57     -66      60       5
      54      45      51      57      17      54      60     -66      57       5
      57      63      72      75      21      57      63     -72      75      22
      57      63     -72      75      23      60      66      57      63       5
      63      72      75      78      10      66      57      63      69      24
      66      57      63      72      25      69      63      72      75       8
      72      75      78      81      10      72      75      78      84      10
      75      78      81      87       5      75      78      84      90       5
      78      81      87      93       5      78      84     -90      93       5
      81      78      84      90       5      81      87     -93      90       5
      81      87      93      96       5      84      78      81      87       5
      84      90     -93      87       5      84      90      93      96       5
      87      93      96      99      27      87      93      96     102      27
      90      93      96      99      27      90      93      96     102      27
      93      96      99     105      10      93      96     102     108      10
      96      99     105     111      16      96     102    -108     111      16
      99      96     102     108      10      99     105    -111     108      29
      99     105     111     114      29     102      96      99     105      10
     102     108    -111     105      29     102     108     111     114      29
       0       3      -6      -9      31      15       3      -6     -12      31
      18      21      -9      -3      32       6      27     -15     -24      31
       9      30     -18     -12      31      15      36     -27     -39      32
      36      54     -45     -51      31      48      45     -54     -60      31
      63      66     -57     -51      31      57      72     -63     -69      31
      81      84     -78     -75      32      87      90     -93     -96      31
      99     102     -96     -93      32
%FLAG EXCLUDED_ATOMS_LIST                                                       
%FORMAT(10I8)                                                                   
       2       3       4       5       6       7       8       3       4       5
       6       7       8       9      10      11      12      40       4       5
       6       7       8       9      10      11      13      14       5       6
       7       8      11      12      15      40      41      42       6       7
       8       9      10      11      15      41       7       9      10      13
      14      16      17      43      44      45      46       8      11      12
      15      40      41      47      11      12      15      40      42      47
      10      13      14      13      14      16      17      18      19      43
      44      45      46      48      49      12      15      41      42      47
      15      40      41      42      47      14      16      17      18      19
      20      21      43      44      45      46      16      17      19      21
      43      44      45      46      48      49      40      41      42      47
      17      18      19      20      21      22      23      43      44      48
      49      50      18      19      21      23      45      46      48      49
      50      19      20      21      22      23      24      25      43      44
      51      20      21      23      43      44      45      46      48      49
      50      51      21      22      23      24      25      26      50      51
      52      22      23      48      49      50      51      23      24      25
      26      27      51      52      53      54      24      25      50      51
      25      26      52      26      27      28      29      52      53      54
      27      28      29      30      31      52      53      54      55      56
      28      29      30      31      32      52      53      54      55      56
      57      58      29      30      31      32      33      53      54      55
      56      57      30      31      32      33      53      54      55      56
      58      31      32      33      34      35      55      57      58      32
      33      34      35      56      57      58      33      34      35      36
      37      55      56      57      58      59      60      61      62      34
      35      36      37      38      57      58      59      60      61      62
      63      64      65      66      35      36      37      38      39      59
      60      61      62      63      64      67      36      37      38      39
      59      60      61      62      65      66      67      37      38      39
      59      60      63      64      65      66      67      68      69      70
      38      39      61      62      63      64      65      66      67      68
      69      70      39      59      60      61      62      63      64      65
      66      67      68      69      70      63      64      65      66      67
      68      69      70      42      47      47      44       0      46      48
      49      48      49       0      49       0      51       0      53      54
      54       0      57      58       0       0      60      63      64      63
      64      62      65      66      65      66      64      67      67      66
      67      67      68      69      70      69      70      70       0
%FLAG HBOND_ACOEF                                                               
%FORMAT(5E16.8)                                                                 

%FLAG HBOND_BCOEF                                                               
%FORMAT(5E16.8)                                                                 

%FLAG HBCUT                                                                     
%FORMAT(5E16.8)                                                                 

%FLAG AMBER_ATOM_TYPE                                                           
%FORMAT(20a4)                                                                   
cl  cc  cd  ca  ss  c   ca  ca  o   n   ca  ca  c6  c6  ca  ca  c6  nb  ca  ca  
ca  c   ca  o   ns  c3  ca  ca  ca  ca  ca  ca  nh  c6  c6  c6  c6  nx  c3  ha  
ha  ha  h1  h1  h1  h1  ha  hc  hc  ha  ha  hn  h1  h1  ha  ha  ha  ha  h1  h1  
h1  h1  hx  hx  hx  hx  hn  hx  hx  hx  
%FLAG TREE_CHAIN_CLASSIFICATION                                                 
%FORMAT(20a4)                                                                   
BLA BLA BLA BLA BLA BLA BLA BLA BLA BLA BLA BLA BLA BLA BLA BLA BLA BLA BLA BLA 
BLA BLA BLA BLA BLA BLA BLA BLA BLA BLA BLA BLA BLA BLA BLA BLA BLA BLA BLA BLA 
BLA BLA BLA BLA BLA BLA BLA BLA BLA BLA BLA BLA BLA BLA BLA BLA BLA BLA BLA BLA 
BLA BLA BLA BLA BLA BLA BLA BLA BLA BLA 
%FLAG JOIN_ARRAY                                                                
%FORMAT(10I8)                                                                   
       0       0       0       0       0       0       0       0       0       0
       0       0       0       0       0       0       0       0       0       0
       0       0       0       0       0       0       0       0       0       0
       0       0       0       0       0       0       0       0       0       0
       0       0       0       0       0       0       0       0       0       0
       0       0       0       0       0       0       0       0       0       0
       0       0       0       0       0       0       0       0       0       0
%FLAG IROTAT                                                                    
%FORMAT(10I8)                                                                   
       0       0       0       0       0       0       0       0       0       0
       0       0       0       0       0       0       0       0       0       0
       0       0       0       0       0       0       0       0       0       0
       0       0       0       0       0       0       0       0       0       0
       0       0       0       0       0       0       0       0       0       0
       0       0       0       0       0       0       0       0       0       0
       0       0       0       0       0       0       0       0       0       0
%FLAG RADIUS_SET                                                                
%FORMAT(1a80)                                                                   
modified Bondi radii (mbondi)                                                   
%FLAG RADII                                                                     
%FORMAT(5E16.8)                                                                 
  1.70000000E+00  1.70000000E+00  1.70000000E+00  1.70000000E+00  1.80000000E+00
  1.70000000E+00  1.70000000E+00  1.70000000E+00  1.50000000E+00  1.55000000E+00
  1.70000000E+00  1.70000000E+00  1.70000000E+00  1.70000000E+00  1.70000000E+00
  1.70000000E+00  1.70000000E+00  1.55000000E+00  1.70000000E+00  1.70000000E+00
  1.70000000E+00  1.70000000E+00  1.70000000E+00  1.50000000E+00  1.55000000E+00
  1.70000000E+00  1.70000000E+00  1.70000000E+00  1.70000000E+00  1.70000000E+00
  1.70000000E+00  1.70000000E+00  1.55000000E+00  1.70000000E+00  1.70000000E+00
  1.70000000E+00  1.70000000E+00  1.55000000E+00  1.70000000E+00  1.30000000E+00
  1.30000000E+00  1.30000000E+00  1.30000000E+00  1.30000000E+00  1.30000000E+00
  1.30000000E+00  1.30000000E+00  1.30000000E+00  1.30000000E+00  1.30000000E+00
  1.30000000E+00  1.30000000E+00  1.30000000E+00  1.30000000E+00  1.30000000E+00
  1.30000000E+00  1.30000000E+00  1.30000000E+00  1.30000000E+00  1.30000000E+00
  1.30000000E+00  1.30000000E+00  1.30000000E+00  1.30000000E+00  1.30000000E+00
  1.30000000E+00  1.30000000E+00  1.30000000E+00  1.30000000E+00  1.30000000E+00
%FLAG SCREEN                                                                    
%FORMAT(5E16.8)                                                                 
  8.00000000E-01  7.20000000E-01  7.20000000E-01  7.20000000E-01  9.60000000E-01
  7.20000000E-01  7.20000000E-01  7.20000000E-01  8.50000000E-01  7.90000000E-01
  7.20000000E-01  7.20000000E-01  7.20000000E-01  7.20000000E-01  7.20000000E-01
  7.20000000E-01  7.20000000E-01  7.90000000E-01  7.20000000E-01  7.20000000E-01
  7.20000000E-01  7.20000000E-01  7.20000000E-01  8.50000000E-01  7.90000000E-01
  7.20000000E-01  7.20000000E-01  7.20000000E-01  7.20000000E-01  7.20000000E-01
  7.20000000E-01  7.20000000E-01  7.90000000E-01  7.20000000E-01  7.20000000E-01
  7.20000000E-01  7.20000000E-01  7.90000000E-01  7.20000000E-01  8.50000000E-01
  8.50000000E-01  8.50000000E-01  8.50000000E-01  8.50000000E-01  8.50000000E-01
  8.50000000E-01  8.50000000E-01  8.50000000E-01  8.50000000E-01  8.50000000E-01
  8.50000000E-01  8.50000000E-01  8.50000000E-01  8.50000000E-01  8.50000000E-01
  8.50000000E-01  8.50000000E-01  8.50000000E-01  8.50000000E-01  8.50000000E-01
  8.50000000E-01  8.50000000E-01  8.50000000E-01  8.50000000E-01  8.50000000E-01
  8.50000000E-01  8.50000000E-01  8.50000000E-01  8.50000000E-01  8.50000000E-01
%FLAG IPOL                                                                      
%FORMAT(1I8)                                                                    
       0
