MOL
    70
  27.4520000   0.6630000 -26.9780000  26.5160000   2.1230000 -27.0410000
  26.2210000   2.9850000 -25.9680000  25.9460000   2.5000000 -28.3110000
  25.3200000   4.3070000 -26.5560000  26.6140000   2.7290000 -24.5620000
  25.2560000   3.7010000 -28.1890000  25.9740000   1.8600000 -29.5910000
  25.8780000   1.9500000 -23.9340000  27.6940000   3.2750000 -23.7710000
  24.6140000   4.2770000 -29.3160000  25.3260000   2.4210000 -30.6990000
  28.8860000   4.1200000 -24.1390000  27.5250000   2.8910000 -22.3640000
  24.6550000   3.6240000 -30.5580000  29.7470000   4.7240000 -22.9730000
  28.6040000   3.1540000 -21.3490000  30.7490000   5.6540000 -23.2290000
  29.5370000   4.2590000 -21.6700000  31.5000000   6.0930000 -22.1480000
  30.3030000   4.7470000 -20.6050000  32.6600000   7.0560000 -22.2790000
  31.2910000   5.6750000 -20.8380000  33.1750000   7.5260000 -21.2610000
  33.1250000   7.4100000 -23.5200000  34.2260000   8.3560000 -23.6640000
  34.8540000   8.2800000 -25.0290000  36.2340000   8.4140000 -25.1880000
  34.0790000   8.0740000 -26.1690000  36.8060000   8.4460000 -26.4670000
  34.6660000   8.0870000 -27.4420000  36.0370000   8.3190000 -27.6350000
  36.5900000   8.4870000 -28.8920000  37.9360000   8.0000000 -29.2420000
  35.7750000   8.8370000 -30.0690000  38.6530000   9.0260000 -30.1540000
  36.5400000   9.8410000 -30.9630000  37.8710000   9.3430000 -31.3710000
  38.5620000  10.3340000 -32.1910000  26.4680000   2.7560000 -29.7300000
  24.1100000   3.3900000 -29.1620000  24.7950000   3.2960000 -30.8320000
  27.9830000   4.0320000 -24.7080000  28.7630000   4.1540000 -23.0770000
  27.9740000   3.6650000 -21.7770000  27.4940000   3.0110000 -23.4270000
  23.6230000   3.6090000 -30.5330000  29.1190000   3.2420000 -20.4150000
  29.2500000   3.1380000 -22.2020000  31.3010000   4.8550000 -20.8430000
  31.8620000   4.8300000 -20.9920000  32.4770000   8.1500000 -23.4700000
  33.8820000   8.2060000 -22.6620000  35.0430000   7.7050000 -23.8930000
  37.1770000   8.6030000 -25.5630000  33.9240000   7.9550000 -25.1550000
  36.9760000   8.5240000 -27.4820000  33.7460000   7.8090000 -27.0670000
  37.6260000   6.9780000 -29.3130000  38.9560000   8.0930000 -29.5520000
  35.7480000   9.2680000 -29.0900000  35.3810000   7.8420000 -30.0390000
  38.7070000   8.6400000 -31.1500000  39.0170000  10.0310000 -30.1030000
  36.8900000  10.8510000 -30.9270000  35.5210000   9.7640000 -30.6440000
  37.4910000   8.3980000 -31.4330000  38.9340000  11.3360000 -32.1510000
  37.5430000  10.3180000 -31.8650000  38.6200000   9.9720000 -33.1970000
