default_name
  2326
  89.4310000 175.7210000  16.4210000  88.9145423 176.5748085  16.2648478
  90.4012762 175.8819019  16.1912720  89.1811399 175.3516089  17.3272117
  88.9610000 174.7160000  15.4470000  89.8008694 174.4066051  14.8249121
  88.3660000 173.4570000  16.1410000  89.1523940 172.9462351  16.6967004
  87.5892304 173.7862173  16.8311775  87.7260000 172.4120000  15.2290000
  88.5080000 171.4820000  14.5440000  89.5908606 171.5085045  14.6656979
  87.9190000 170.5210000  13.7070000  88.5436916 169.7988502  13.1812998
  86.5480000 170.4910000  13.5500000  86.0905209 169.7522552  12.8919203
  85.7570000 171.3960000  14.2260000  84.6743301 171.3684317  14.1028499
  86.3430000 172.3510000  15.0710000  85.7146618 173.0571844  15.6137656
  87.9470000 175.3320000  14.4730000  87.0930000 176.1280000  14.8950000
  88.0640000 174.9630000  13.1720000  88.8671044 174.4022173  12.9257371
  87.1830000 175.4280000  12.0940000  86.8922722 176.4623774  12.2774122
  87.9050000 175.3520000  10.7260000  88.9019508 175.7687871  10.8690972
  87.9843945 174.2854121  10.5157933  87.2250000 176.0520000   9.5530000
  86.1370000 176.6440000   9.7550000  87.7940000 176.0330000   8.4420000
  85.8280000 174.6670000  12.0990000  85.7170000 173.5600000  11.5590000
  84.7990000 175.2990000  12.7060000  85.0350785 176.1736819  13.1524279
  83.4390000 174.7720000  12.8820000  83.4244435 173.7882274  13.3511255
  82.5900000 175.7290000  13.7250000  81.5692874 175.3468252  13.7387310
  83.1010000 175.8640000  15.1550000  84.1215677 176.2465895  15.1420957
  82.4618762 176.5538037  15.7061722  83.0854253 174.8882630  15.6405877
  82.5340000 177.0020000  13.0760000  82.0028390 177.6055335  13.6006100
  82.7300000 174.4070000  11.5700000  81.6600000 173.7880000  11.5970000
  83.3170000 174.7780000  10.4330000  84.1496756 175.3484460  10.4696353
  82.7670000 174.4440000   9.1290000  81.6784382 174.4253671   9.1817749
  83.1860000 175.4760000   8.0920000  82.7002058 175.2475175   7.1433699
  82.8781658 176.4661592   8.4280400  84.5920000 175.4520000   7.9200000
  84.8453883 176.1060070   7.2645085  83.2210000 173.0330000   8.7240000
  82.4520000 172.3300000   8.0900000  84.4380000 172.6090000   9.1300000
  85.0224355 173.2927433   9.5893796  85.0100000 171.2870000   8.8380000
  85.1899279 171.2084183   7.7658293  86.3400000 171.0510000   9.5790000
  86.1030357 171.2177640  10.6297792  86.5721535 169.9976196   9.4221739
  87.5390000 171.8960000   9.1910000  87.2361241 172.9407875   9.1218180
  88.6080000 171.7570000  10.2150000  88.9117406 170.7124809  10.2844285
  89.4659076 172.3661717   9.9303859  88.2311544 172.0903005  11.1819532
  88.1040000 171.4830000   7.8500000  87.3396247 171.5993473   7.0816946
  88.9610415 172.1111966   7.6072033  88.4190486 170.4404267   7.8934092
  84.0660000 170.0780000   9.0790000  84.0090000 169.2200000   8.1930000
  83.3340000 169.9310000  10.2170000  83.2400000 170.7830000  11.4210000
  82.4894551 171.5578836  11.2649933  84.2059179 171.2479447  11.6183020
  82.8510000 169.8180000  12.4770000  82.3343080 170.3399835  13.2823953
  83.7394149 169.3269913  12.8741534  81.9580000 168.8370000  11.8050000
  80.9206204 169.1713625  11.8170114  82.0299741 167.8603518  12.2836205
  82.4620000 168.7490000  10.3550000  83.0918449 167.8661163  10.2458669
  81.3230000 168.6960000   9.3230000  81.1580000 167.6680000   8.6830000
  80.6120000 169.8250000   9.1150000  80.8697519 170.5770758   9.7379328
  79.4730000 170.0360000   8.1940000  78.6333058 169.4003165   8.4749260
  79.0090000 171.5300000   8.2470000  77.9976872 171.5721180   7.8425588
  79.0190000 172.1150000   9.6360000  80.0301417 172.0736508  10.0409472
  78.6861686 173.1521850   9.5963815  78.3479327 171.5428338  10.2766209
  79.8570000 172.3420000   7.4390000  79.5611337 173.2543095   7.4808916
  79.7340000 169.5910000   6.7200000  78.7930000 169.2380000   6.0040000
  81.0080000 169.6320000   6.2840000  81.6804318 169.9899586   6.9471745
  81.4670000 169.3220000   4.9290000  80.6532356 169.4595705   4.2169880
  82.6150000 170.2530000   4.5440000  82.8662330 170.0763404   3.4981642
  82.2800122 171.2828447   4.6677056  83.7600000 170.0290000   5.3490000
  84.4609476 170.6282307   5.0821762  81.8570000 167.8400000   4.6910000
  82.2270000 167.4810000   3.5690000  81.7560000 166.9950000   5.7290000
  81.5803173 167.4457385   6.6156057  82.0050000 165.5480000   5.7210000
  82.3054804 165.2146498   6.7143219  80.7310000 164.8010000   5.3190000
  80.4141426 165.2146602   4.3616151  80.8338425 163.7194586   5.2307290
  79.6200000 165.0460000   6.2770000  79.4530000 164.2590000   7.3970000
  78.4300000 164.7800000   8.0560000  78.1287096 164.2925752   8.9832217
  77.9410000 165.8490000   7.4330000  77.1601770 166.4269125   7.7094644
  78.7070000 166.0430000   6.3050000  78.5026912 166.8868182   5.6459629
  83.2190000 165.1040000   4.8720000  83.1130000 164.1970000   4.0460000
  84.3800000 165.7380000   5.1200000  84.3451929 166.4958859   5.7867059
  85.6480000 165.4750000   4.4320000  85.5381537 165.6821921   3.3675262
  86.7520000 166.3560000   4.9860000  86.5658061 166.4804269   6.0527469
  87.6944575 165.8278336   4.8413830  86.8290000 167.7050000   4.3310000
  87.2257441 167.5843909   3.3229581  85.8258097 168.1279525   4.2778724
  87.9030000 168.8320000   5.2640000  89.5600000 167.9070000   5.2260000
  89.8768220 167.7703997   4.1920449  90.3120494 168.4855312   5.7624923
  89.4440364 166.9331171   5.7016110  86.1070000 164.0350000   4.4460000
  86.7630000 163.6200000   3.4910000  85.7880000 163.2750000   5.5340000
  85.3252193 163.7465952   6.2978922  86.1400000 161.8480000   5.7010000
  87.2203413 161.7271330   5.6212940  85.6840000 161.3220000   7.0840000
  86.0234251 160.2917780   7.1913895  86.1815668 161.9470898   7.8254783
  84.1890000 161.3840000   7.2950000  83.5830000 162.5280000   7.7960000
  84.2097347 163.3796563   8.0605461  82.2020000 162.6010000   7.9630000
  81.7420752 163.5118213   8.3463738  81.4130000 161.5190000   7.6230000
  80.0570000 161.5670000   7.8040000  79.7572526 162.4005043   8.1741644
  81.9940000 160.3730000   7.1140000  81.3737480 159.5226988   6.8304939
  83.3750000 160.3070000   6.9640000  83.8387260 159.3982093   6.5803885
  85.5400000 161.0140000   4.5650000  86.0880000 159.9840000   4.1920000
  84.4180000 161.5040000   4.0040000  84.0950429 162.3711040   4.4088810
  83.6500000 160.9250000   2.8980000  83.4855651 159.8588143   3.0539118
  82.2840000 161.6300000   2.8420000  82.2440169 162.1949521   3.7733054
  82.3655606 162.3201001   2.0022323  81.0290000 160.8110000   2.6980000
  80.9304831 160.5302741   1.6493875  81.0470000 159.5580000   3.5580000
  81.1450350 159.8379602   4.6068614  80.1183961 159.0053512   3.4152595
  81.8904978 158.9307865   3.2695297  79.8600000 161.6350000   3.0940000
  79.7991390 162.5129959   2.4509460  78.9484002 161.0462936   2.9914728
  79.9726267 161.9517876   4.1308509  84.4050000 161.1470000   1.5940000
  84.0980000 160.5120000   0.5810000  85.3930000 162.0390000   1.6530000
  85.5599177 162.4811358   2.5456107  86.2360000 162.4130000   0.5310000
  87.2365945 162.6511040   0.8918550  86.2923174 161.5832369  -0.1735714
  85.6710000 163.6150000  -0.1730000  84.4650000 163.8770000  -0.0880000
  86.5450000 164.3750000  -0.8430000  87.5301559 164.1615586  -0.7796756
  86.1330000 165.5250000  -1.6570000  85.1940760 165.9281713  -1.2775612
  87.1920000 166.6240000  -1.6060000  86.8727639 167.4506992  -2.2406306
  87.2890079 166.9724388  -0.5777588  88.4450000 166.1360000  -2.0600000
  89.0961011 166.8403431  -2.0204026  85.9490000 164.9800000  -3.0940000
  85.9050000 163.7550000  -3.2810000  83.2630000 165.2100000  -5.1990000
  83.5257232 165.9179112  -5.8697739  81.9340000 164.6140000  -5.3060000
  82.0309901 163.6065148  -5.7105560  81.2180000 164.5310000  -3.9450000
  81.3323337 165.4932841  -3.4459647  80.1608499 164.3428338  -4.1324224
  81.7700000 163.4480000  -3.0720000  81.7368987 162.5276280  -3.6550270
  82.8078220 163.7097033  -2.8657502  80.9010000 163.1930000  -1.5110000
  79.6860000 162.1320000  -2.0020000  80.1361633 161.2251931  -2.4059223
  79.0590709 161.8763833  -1.1477631  79.0762086 162.6075645  -2.7701758
  81.1050000 165.4070000  -6.2920000  81.2340000 166.6320000  -6.3640000
  65.6880000 153.5360000   1.9090000  64.8913565 153.1367054   2.3844181
  66.9560000 152.8320000   1.9800000  67.0606860 152.2110272   1.0903187
  68.1570000 153.7810000   2.0590000  67.8882877 154.5710182   2.7602590
  68.9929753 153.2083037   2.4605772  68.5620000 154.4040000   0.7190000
  67.6670713 154.7831544   0.2255981  69.5210000 155.5090000   0.9150000
  70.4164432 155.1304998   1.4079685  69.7909357 155.9324057  -0.0524519
  69.0647442 156.2811763   1.5344150  69.2130000 153.3830000  -0.1950000
  68.5128563 152.5707394  -0.3902717  69.4872831 153.8596934  -1.1360810
  70.1072488 152.9839665   0.2837383  66.9280000 151.7840000   3.0910000
  66.5980000 152.0930000   4.2350000  67.1930000 150.5130000   2.7390000
  67.5240000 149.9880000   1.4000000  68.2704589 150.6308742   0.9335108
  66.6241667 149.9714622   0.7850809  68.0440000 148.6190000   1.6840000
  69.1280658 148.6684948   1.7862288  67.7876546 147.9650102   0.8505219
  67.4070000 148.1580000   2.9290000  68.0330923 147.5007650   3.5324481
  66.4933870 147.6331171   2.6498783  67.0610000 149.4250000   3.7250000
  66.0063111 149.4191232   4.0001272  67.9090000 149.4910000   4.9790000
  67.5360000 148.8600000   5.9600000  69.0330000 150.2020000   4.9660000
  69.3716643 150.6654889   4.1349862  69.8860000 150.1940000   6.1500000
  69.4763069 149.5173967   6.8999725  71.2860000 149.7230000   5.7830000
  71.6906931 150.2360211   4.9105711  71.9465038 149.8809671   6.6355732
  71.3260000 148.2700000   5.4780000  70.9170000 147.7840000   4.2540000
  71.0470000 146.4710000   4.3300000  70.7714913 145.8853890   3.4529289
  71.5130000 146.0950000   5.5230000  71.7106326 145.1583257   5.8449978
  71.6850000 147.2350000   6.2660000  72.0511375 147.1677724   7.2904633
  69.9350000 151.5000000   6.9250000  70.7040000 151.5930000   7.8740000
  69.0970000 152.4870000   6.5630000  68.4949984 152.3508570   5.7635261
  69.0130000 153.7510000   7.2840000  69.9836513 154.0082690   7.7079668
  68.5130000 154.9460000   6.4280000  67.4788053 154.7640055   6.1357354
  68.5950000 156.2410000   7.2200000  69.6290391 156.4239195   7.5122406
  68.2404832 157.0673567   6.6039213  67.9743562 156.1615731   8.1125213
  69.2840000 155.0890000   5.1250000  69.1700402 154.1807448   4.5332333
  68.8955487 155.9388308   4.5637578  70.3398134 155.2500623   5.3427563
  68.0310000 153.4440000   8.3760000  66.9490000 152.9150000   8.1000000
  68.4060000 153.7230000   9.6100000  69.3618491 153.9898846   9.7976819
  67.5160000 153.5060000  10.7400000  66.5131111 153.2926512  10.3701413
  67.9790000 152.3280000  11.6110000  68.9479648 152.6659078  11.9784571
  67.2583757 152.3347919  12.4287741  68.1110000 150.9010000  11.0570000
  67.1557908 150.4231923  11.2746603  68.2177417 151.0243290   9.9792717
  69.4580000 149.8510000  11.6740000  69.2510000 149.8150000  13.4650000
  68.2745037 149.3972854  13.7100887  70.0316506 149.1974165  13.9091576
  69.3215461 150.8285097  13.8598704  67.3250000 154.8060000  11.5270000
  66.3990000 154.8880000  12.3310000  68.1640000 155.8380000  11.2510000
  68.9679308 155.6476347  10.6700046  68.0410000 157.1740000  11.8560000
  67.6981979 157.1262391  12.8895883  69.3170000 158.0550000  11.7970000
  69.0932442 159.0140813  12.2641141  70.4860000 157.4030000  12.5150000
  70.7106583 156.4440126  12.0481244  71.3598411 158.0513648  12.4507703
  70.2275729 157.2450769  13.5620804  69.6810000 158.4500000  10.3680000
  68.8599612 159.0146626   9.9262381  70.5804063 159.0656754  10.3785769
  69.8628944 157.5520903   9.7774295  66.8510000 157.9420000  11.2780000
  66.3080000 157.6040000  10.2080000  66.4880000 159.0010000  12.0060000
  67.0511882 159.1418874  12.8324800  65.4320000 159.9570000  11.7210000
  64.7292669 159.5413606  10.9988440  64.6780000 160.2760000  13.0060000
  64.4003521 159.3254441  13.4614716  65.3689326 160.8048199  13.6625529
  63.4500000 161.1080000  12.8000000  63.7001579 161.9654627  12.1752763
  62.6899396 160.5058431  12.3021874  62.8030000 161.6930000  14.3780000
  62.8290000 160.0880000  15.3750000  63.8502573 159.7112462  15.4314717
  62.4564889 160.2787795  16.3814489  62.1952711 159.3468406  14.8879972
  66.0800000 161.2300000  11.2110000  67.0160000 161.7610000  11.8280000
  65.5660000 161.7260000  10.1030000  64.8200288 161.2325147   9.6338532
  66.0700000 162.9360000   9.5010000  67.0034517 163.2406718   9.9742253
  66.3380000 162.6730000   8.0100000  66.9297406 161.7585239   7.9690637
  65.3499650 162.4849207   7.5898655  67.0280000 163.7560000   7.2100000
  66.4709042 164.6838422   7.3398229  68.4430000 163.9590000   7.6490000
  69.0008805 163.0316511   7.5190304  68.9009887 164.7451080   7.0486822
  68.4600096 164.2484202   8.6997364  67.0630000 163.3790000   5.8050000
  66.0449656 163.2508021   5.4372084  67.5604703 164.1606341   5.2308287
  67.6098186 162.4427592   5.6930110  65.0560000 164.0550000   9.7100000
  63.8510000 163.8290000   9.5740000  68.4480000 169.0570000   7.7730000
  68.6719748 169.9324109   7.3217901  69.5540000 168.2480000   8.3170000
  70.3152147 168.8983415   8.7479376  69.0270000 167.3050000   9.4220000
  68.6267828 167.9538731  10.2010309  68.2135553 166.7394201   8.9675474
  70.0420000 166.3350000  10.0370000  70.5038193 165.7858456   9.2164799
  70.8031431 166.9143048  10.5596558  69.4390000 165.3380000  11.0090000
  68.2300000 165.3040000  11.2640000  70.2890000 164.5060000  11.5900000
  69.9487283 163.8187103  12.2472286  71.2738897 164.5623203  11.3733859
  70.2460000 167.4680000   7.2010000  69.5720000 166.8820000   6.3560000
  71.5930000 167.4870000   7.2040000  72.0049472 168.0922271   7.8997723
  72.4860000 166.7880000   6.2740000  72.0896294 166.7421522   5.2596591
  73.8250000 167.5300000   6.2430000  74.1371095 167.6858565   7.2756648
  74.9060000 166.7860000   5.4980000  74.5947854 166.6301690   4.4650616
  75.8270004 167.3687113   5.5154615  75.0781582 165.8209427   5.9745779
  73.6190000 168.8090000   5.6500000  74.4510356 169.2871322   5.6234149
  72.6270000 165.3180000   6.7020000  72.8730000 165.0380000   7.8740000
  72.4670000 164.3900000   5.7650000  72.2393371 164.6906337   4.8280431
  72.5650000 162.9600000   6.0270000  72.8160877 162.7921945   7.0743278
  71.2200000 162.2630000   5.7240000  70.5033314 162.6803950   6.4312955
  70.9501882 162.5663994   4.7124416  71.2010000 160.7410000   5.8200000
  72.1181077 160.3571549   5.3731473  71.1050000 160.2720000   7.2550000
  70.1878516 160.6550927   7.7024121  71.0940946 159.1823817   7.2817150
  71.9637836 160.6401110   7.8163248  70.0420000 160.1900000   5.0870000
  70.1052342 160.4772981   4.0374474  70.0446531 159.1028971   5.1663819
  69.1200927 160.5828450   5.5157875  73.6860000 162.3600000   5.1690000
  73.5320000 162.2310000   3.9440000  74.8210000 161.9710000   5.7790000
  75.1930000 162.0280000   7.2070000  74.6404690 161.2673265   7.7585302
  74.9526790 163.0128504   7.6075178  76.6950000 161.7600000   7.1840000
  76.8791907 160.8151456   7.6952954  77.1925793 162.5667749   7.7221733
  77.1510000 161.7080000   5.7560000  77.8779203 160.9006841   5.6669669
  77.5834207 162.6300595   5.3675179  75.8890000 161.3570000   4.9770000
  75.8930625 161.8020449   3.9820041  75.6530000 159.8520000   4.8600000
  75.2230000 159.2200000   5.8310000  75.8550000 159.2900000   3.6610000
  76.0919616 159.8539012   2.8572812  75.6670000 157.8590000   3.4690000
  75.5819435 157.3712820   4.4400797  74.4000000 157.5690000   2.6640000
  74.5260399 158.0646132   1.7014094  74.4285359 156.4886245   2.5223156
  73.0670000 157.9640000   3.2640000  73.0574187 159.0403193   3.4358891
  71.9660000 157.6020000   2.3450000  71.9746513 156.5256937   2.1729864
  71.0127470 157.8910404   2.7875666  72.0980959 158.1221201   1.3962502
  72.8190000 157.2410000   4.5330000  73.6070873 157.4790400   5.2473912
  71.8550537 157.5438293   4.9419049  72.8121261 156.1674033   4.3447401
  76.8560000 157.2110000   2.7960000  77.5270000 157.8290000   1.9690000
  77.1150000 155.9600000   3.1630000  76.5895799 155.5702764   3.9325119
  78.1590000 155.1470000   2.5590000  78.4726670 155.6025792   1.6197664
  79.3870000 155.0280000   3.4830000  79.5214827 155.9938103   3.9700566
  79.1562936 154.2721005   4.2336600  80.6770000 154.6420000   2.7490000
  80.6302384 153.5719581   2.5467020  80.7558912 155.1860733   1.8077973
  81.9070000 154.9230000   3.5720000  82.0620000 155.9910000   4.1820000
  82.8340000 153.9810000   3.5790000  83.6806860 154.1139366   4.1133708
  82.6914415 153.1325411   3.0499481  77.4870000 153.8070000   2.2630000
  77.3010000 152.9850000   3.1610000  77.0200000 153.6450000   1.0220000
  77.1225953 154.4064746   0.3664620  76.2970000 152.4460000   0.5870000
  75.9579997 151.8788938   1.4539305  75.0710000 152.8460000  -0.2480000
  75.4985086 153.1104422  -1.2151639  74.4611405 151.9488164  -0.3539859
  74.1980000 154.0000000   0.2570000  74.8413788 154.7778216   0.6682884
  73.3790000 154.5700000  -0.8660000  72.7349855 153.7928286  -1.2775200
  72.7651082 155.3883023  -0.4896771  74.0418175 154.9430334  -1.6467813
  73.2870000 153.5580000   1.3700000  73.8839519 153.1878303   2.2035000
  72.6831756 154.4021971   1.7029093  72.6329988 152.7633284   1.0110035
  77.2090000 151.4740000  -0.2050000  77.9870000 151.9040000  -1.0570000
  77.0910000 150.1660000   0.0830000  76.4738155 149.9221664   0.8443986
  77.8900000 149.1000000  -0.5340000  78.2078724 149.4142968  -1.5281196
  79.1360000 148.7850000   0.3020000  79.5825550 147.8404391  -0.0086326
  79.8625357 149.5880061   0.1777943  78.8690000 148.6700000   1.7810000
  78.8790000 149.7970000   2.5950000  79.1081036 150.7685841   2.1572377
  78.5990000 149.6940000   3.9630000  78.5951554 150.5883862   4.5860243
  78.3270000 148.4570000   4.5250000  78.1174089 148.3733138   5.5913809
  78.3220000 147.3300000   3.7310000  78.1130043 146.3541149   4.1692571
  78.5860000 147.4400000   2.3590000  78.5710632 146.5512315   1.7281534
  77.0920000 147.8170000  -0.8460000  77.6340000 146.9260000  -1.4940000
  75.8060000 147.7360000  -0.4360000  75.4138445 148.4677368   0.1392171
  74.9680000 146.5820000  -0.7560000  75.5785985 145.6792398  -0.7388954
  73.8290000 146.4190000   0.2450000  73.1786121 147.2936593   0.2531239
  73.2494773 145.5385108  -0.0324749  74.2810000 146.2070000   1.6600000
  74.9580000 145.0600000   2.0370000  75.1880000 145.1890000   3.3330000
  75.7221884 144.3799568   3.8311876  74.7020000 146.3330000   3.8040000
  74.7455830 146.6810678   4.7511268  74.1090000 146.9870000   2.7500000
  73.6255725 147.9508829   2.9091500  74.4370000 146.7720000  -2.1770000
  73.9020000 147.8500000  -2.4870000  71.0020000 148.5810000  -2.6940000
  70.1512851 148.1990083  -3.0818992  70.9940000 149.9820000  -2.2370000
  69.9622971 150.3274487  -2.1710187  71.6570000 150.1460000  -0.8570000
  72.7276735 150.0465795  -1.0355301  71.4341016 151.1670009  -0.5472042
  71.2360000 149.1840000   0.2350000  70.1543897 149.1145926   0.3507693
  71.6300225 148.2174905  -0.0791733  71.8610000 149.5780000   1.5580000
  73.1130000 149.5980000   1.6460000  71.0960000 149.9610000   2.4730000
  71.7810000 150.8180000  -3.2490000  71.3550000 151.9200000  -3.6010000
  72.9290000 150.2810000  -3.7160000  73.2905493 149.4539163  -3.2628842
  73.7540000 150.9330000  -4.7220000  73.9574612 151.9716690  -4.4614824
  75.1040000 150.2030000  -4.9380000  74.9048950 149.1438406  -5.1012106
  75.8510000 150.7700000  -6.1390000  76.0508830 151.8290938  -5.9763097
  76.7939533 150.2380305  -6.2652857  75.2432720 150.6490449  -7.0357375
  75.9680000 150.2850000  -3.6760000  75.4422801 149.8164161  -2.8440446
  76.9116796 149.7669376  -3.8468211  76.1657910 151.3300879  -3.4377335
  72.9440000 151.1500000  -6.0230000  72.8390000 152.2910000  -6.4680000
  64.6570000 160.4130000  -1.7580000  64.1680480 161.2496211  -1.4732361
  64.2870000 159.1480000  -1.1310000  63.5192886 158.6633453  -1.7341817
  65.4890000 158.1930000  -1.0040000  65.0978115 157.2999719  -0.5165869
  65.8833420 157.9277108  -1.9849262  66.6670000 158.6580000  -0.1750000
  67.6890000 159.4080000  -0.7480000  67.6224995 159.6807325  -1.8012305
  68.7960000 159.8130000   0.0130000  69.5750195 160.4239766  -0.4430009
  68.9000000 159.4360000   1.3470000  69.7685268 159.7319610   1.9353606
  67.8980000 158.6840000   1.9260000  67.9643877 158.4032605   2.9771319
  66.7910000 158.2800000   1.1590000  66.0136445 157.6615053   1.6076454
  63.6110000 159.4640000   0.2320000  63.6050000 160.6180000   0.6760000
  63.0580000 158.8720000   4.3750000  62.0944844 159.1722715   4.4146733
  63.7080000 158.4720000   5.6150000  64.1382562 157.4739835   5.5316822
  64.8210000 159.4560000   6.0650000  64.3743159 160.4384296   6.2179854
  65.4810000 158.9930000   7.3550000  65.9283411 158.0107690   7.2026543
  66.2556279 159.7037707   7.6428491  64.7326165 158.9322299   8.1451460
  65.8620000 159.6430000   4.9760000  65.3849717 160.0437386   4.0815981
  66.6283157 160.3373622   5.3205593  66.3212252 158.6823562   4.7428123
  62.5720000 158.3740000   6.6260000  61.8750000 159.3680000   6.8610000
  61.7630000 150.4190000  15.9990000  61.7352542 149.8981626  16.8639034
  62.8330000 150.1270000  15.0490000  62.5835780 150.3793549  14.0183668
  64.1840000 150.7990000  15.4110000  64.0279543 151.8774778  15.4361912
  64.7250000 150.3300000  16.7650000  64.8817467 149.2516088  16.7404264
  65.6715096 150.8295956  16.9714566  64.0072922 150.5745557  17.5480642
  65.2190000 150.6360000  14.2890000  64.8414171 151.0963659  13.3759850
  66.1511012 151.1199461  14.5806904  65.4004062 149.5757865  14.1125350
  62.9520000 148.6140000  14.7800000  63.1680000 148.2380000  13.6240000
  60.1510000 147.5550000  12.6510000  59.4841165 146.7980894  12.6014814
  60.2510000 148.4710000  11.5070000  60.9225732 149.2916325  11.7592914
  60.7990000 147.7520000  10.2550000  60.0127875 147.0826553   9.9057912
  60.9812642 148.5205977   9.5039093  62.0820000 146.9530000  10.4880000
  62.3331958 147.0275293  11.5460392  61.8766835 145.9125308  10.2362638
  63.2450000 147.4530000   9.6570000  63.8753120 146.6078762   9.3802844
  62.8604935 147.9294423   8.7551924  64.0580000 148.4240000  10.3900000
  63.7562339 148.6620108  11.3240168  65.1590000 149.0000000   9.9120000
  65.5870000 148.7190000   8.6860000  65.0739766 148.0643480   8.1129923
  66.4234162 149.1613295   8.3326558  65.8370000 149.8680000  10.6550000
  65.5149428 150.0909727  11.5859471  66.6713547 150.3008924  10.2854664
  58.9250000 149.2190000  11.2240000  58.4680000 149.2950000  10.0760000
  72.5130000 165.8030000  -2.6620000  72.7119989 164.9466363  -3.1591317
  73.1640000 167.0350000  -3.1130000  72.7152147 167.3529996  -4.0540458
  73.0100000 168.1710000  -2.0860000  73.1729145 169.1493196  -2.5381603
  71.9494725 168.0437804  -1.8687519  73.8040000 168.0710000  -0.8000000
  75.1110000 168.5430000  -0.7300000  75.5705557 168.9430972  -1.6337866
  75.8300000 168.5120000   0.4610000  76.8729292 168.8283852   0.4783441
  75.2190000 168.0770000   1.6250000  75.9400000 168.0780000   2.7960000
  76.8387393 168.3959117   2.6828650  73.9010000 167.6520000   1.5940000
  73.4154561 167.2977149   2.5033017  73.1940000 167.6790000   0.3900000
  72.1433002 167.3897567   0.3683592  74.6200000 166.8150000  -3.5340000
  75.1080000 167.5370000  -4.4010000  75.2960000 165.8170000  -2.9260000
  74.7944572 165.3456357  -2.1868316  76.6640000 165.3810000  -3.2260000
  77.0445705 165.8115940  -4.1522041  77.6030000 165.7540000  -2.0970000
  77.2400688 165.3223130  -1.1642475  78.6001720 165.3693554  -2.3110019
  77.6452647 166.8390603  -2.0023576  76.6190000 163.8630000  -3.4170000
  75.9280000 163.1810000  -2.6650000  77.3200000 163.3480000  -4.4440000
  77.8999580 163.9975974  -4.9556358  77.2900000 161.9490000  -4.8820000
  77.0387867 161.2736081  -4.0641756  76.1850000 161.8540000  -5.9580000
  75.2224822 162.0776303  -5.4979477  76.4587824 162.6613215  -6.6372461
  76.0850000 160.5570000  -6.7310000  75.3630000 159.4800000  -6.2300000
  74.9198306 159.5662613  -5.2379016  75.2000000 158.3110000  -6.9650000
  74.6160564 157.4852830  -6.5584251  75.8180000 158.1810000  -8.1960000
  75.6670000 157.0030000  -8.9020000  75.1206713 156.3592698  -8.4451236
  76.5380000 159.2460000  -8.7180000  77.0302969 159.1518144  -9.6859222
  76.6310000 160.4380000  -8.0020000  77.1392440 161.2977649  -8.4385689
  78.6430000 161.4720000  -5.4580000  79.3010000 162.2330000  -6.1540000
  79.0290000 160.2080000  -5.2160000  78.5022542 159.6330052  -4.5741128
  80.2810000 159.6700000  -5.7670000  80.3722433 160.0006837  -6.8016121
  81.5350000 160.1280000  -4.9900000  81.3638194 161.1497371  -4.6511051
  81.6505448 159.4737002  -4.1259159  82.8110000 160.0790000  -5.8430000
  82.8687701 159.0909228  -6.2995818  82.7192847 160.8344715  -6.6233545
  84.0650000 160.3360000  -5.0380000  83.9215712 161.2128437  -4.4065950
  84.2825477 159.4702038  -4.4125647  85.2090000 160.5760000  -5.9220000
  85.0196626 160.6159917  -6.9132877  86.4610000 160.7530000  -5.5070000
  86.7550000 160.7010000  -4.2110000  86.0234433 160.5260311  -3.5369743
  87.7084770 160.8367194  -3.9067607  87.4320000 160.9720000  -6.3850000
  87.2186674 161.0042297  -7.3716866  88.3797457 161.1054085  -6.0623873
  80.2850000 158.1610000  -5.8940000  80.0430000 157.4570000  -4.9120000
  82.4020000 154.6310000  -6.7170000  81.6252482 154.0789278  -7.0516225
  83.7310000 154.0210000  -6.7030000  84.3051546 154.4512396  -7.5235727
  84.5120000 154.2320000  -5.3920000  83.8566328 153.8547070  -4.6069885
  85.3867562 153.5870677  -5.4754505  84.9530000 155.6370000  -5.0480000
  85.9055025 155.7583366  -5.5638655  84.2589440 156.4084924  -5.3814440
  85.1690000 155.7640000  -3.5510000  86.2930000 155.4590000  -3.0840000
  84.1820000 156.0640000  -2.8360000  83.5410000 152.5420000  -6.8680000
  82.4900000 151.9880000  -6.5570000  85.7780000 149.1270000  -5.9450000
  85.3696960 148.4656896  -6.5900238  86.8850000 148.6920000  -5.1290000
  87.8156659 148.6880626  -5.6964018  87.0230000 149.6820000  -3.9700000
  86.1705492 150.3581819  -4.0348455  86.9541209 149.0983460  -3.0520110
  88.3060000 150.4870000  -3.9610000  89.1378845 149.7843365  -3.9126990
  88.3605771 151.0503945  -4.8925080  88.3840000 151.4450000  -2.7850000
  87.3280000 151.9890000  -2.3680000  89.5160000 151.6520000  -2.2860000
  86.5270000 147.3750000  -4.5240000  85.3520000 147.0890000  -4.3410000
  87.5300000 146.5960000  -4.1580000  88.4481412 146.8729550  -4.4748785
  87.3960000 145.3240000  -3.4460000  88.3102001 144.7407526  -3.5562715
  87.1490000 145.5680000  -1.9580000  86.1082506 145.8727389  -1.8481175
  87.3066982 144.6220424  -1.4399310  88.0470000 146.6230000  -1.3620000
  89.4280000 146.4530000  -1.3270000  89.8541544 145.5318543  -1.7244701
  90.2630000 147.4350000  -0.7960000  91.3444599 147.2993538  -0.8080988
  89.7130000 148.5750000  -0.2270000  90.5110000 149.5440000   0.3500000
  91.4467414 149.3339658   0.3067170  88.3410000 148.7620000  -0.2590000
  87.9027574 149.6672261   0.1612495  87.5200000 147.7900000  -0.8300000
  86.4408837 147.9397463  -0.8644121  86.3520000 144.3670000  -3.9990000
  85.7770000 143.5860000  -3.2540000  83.5390000 145.2130000  -5.4520000
  83.8959759 145.0315660  -6.3792267  82.1820000 145.7680000  -5.3230000
  81.4720354 145.2456458  -5.9642453  81.6560000 145.7590000  -3.8450000
  80.7504997 146.3623998  -3.7811391  81.3480000 144.3420000  -3.4180000
  82.2531904 143.7380612  -3.4811572  80.9832141 144.3426574  -2.3908527
  80.5851921 143.9220742  -4.0736567  82.6280000 146.4470000  -2.8610000
  83.5695686 145.9063830  -2.9573465  82.7523178 147.4621934  -3.2378647
  82.2330000 146.4950000  -1.4440000  82.1089359 145.4800931  -1.0662807
  83.0054303 147.0046028  -0.8680176  81.2916834 147.0359019  -1.3467992
  82.0120000 147.1380000  -5.9340000  82.9820000 147.8480000  -6.1900000
  80.7510000 147.4910000  -6.1710000  80.0382845 146.7981541  -5.9918339
  80.3350000 148.8000000  -6.6630000  81.2011741 149.3106948  -7.0837521
  79.2450000 148.6970000  -7.7530000  78.4387768 148.0950903  -7.3337054
  78.8854980 149.7101354  -7.9330416  79.7050000 148.0840000  -9.0620000
  80.6841087 148.4780950  -9.3342795  79.7849707 147.0138679  -8.8708951
  78.7330000 148.3220000 -10.1960000  77.5790000 147.8450000 -10.0970000
  79.1070000 149.0310000 -11.1600000  79.8020000 149.4840000  -5.4180000
  78.9490000 148.9310000  -4.7060000  80.3850000 150.6290000  -5.1040000
  81.1558656 150.9294105  -5.6833264  80.0870000 151.3910000  -3.9070000
  79.1609202 151.0432752  -3.4492197  81.2100000 151.2260000  -2.9100000
  81.5033680 150.1763183  -2.9242770  82.4220000 152.0940000  -3.2000000
  82.1294900 153.1439168  -3.1854318  83.1846448 151.9192770  -2.4410903
  82.8229738 151.8426711  -4.1819137  80.6550000 151.5760000  -1.6640000
  81.3239612 151.4915201  -0.9806594  79.7480000 152.8550000  -4.1970000
  80.2250000 153.4300000  -5.1760000  78.9030000 153.4470000  -3.3670000
  78.4456903 152.9113394  -2.6430975  78.4820000 154.8200000  -3.5770000
  79.2400610 155.4247264  -4.0747435  77.1850000 154.8730000  -4.4090000
  77.3128512 154.2454456  -5.2910027  75.9950000 154.3820000  -3.6080000
  75.8662246 155.0093941  -2.7260167  75.0966195 154.4321379  -4.2232228
  76.1654301 153.3509765  -3.2980876  76.9270000 156.2650000  -4.9470000
  77.7577068 156.5686144  -5.5840609  76.0049857 156.2652814  -5.5283684
  76.8323597 156.9643761  -4.1163273  78.4040000 155.5850000  -2.2560000
  78.0840000 155.0160000  -1.2060000  78.7920000 156.8580000  -2.3090000
  79.1196983 157.1997314  -3.2011507  78.8100000 157.7690000  -1.1710000
  78.4002346 157.2689979  -0.2933956  80.2410000 158.2140000  -0.8570000
  80.6899619 158.5874571  -1.7773599  80.1928814 159.0193048  -0.1240138
  81.0820000 157.0840000  -0.3090000  80.6758385 156.8029905   0.6626828
  80.9996932 156.2404274  -0.9943560  82.5370000 157.4680000  -0.1550000
  82.9396758 157.7202840  -1.1359709  82.6037605 158.3373496   0.4991206
  83.3330000 156.3300000   0.4380000  82.8110990 155.9710362   1.3250541
  83.3889699 155.5289324  -0.2990599  84.7080000 156.7570000   0.8110000
  84.6563650 157.4989893   1.4942902  85.2093941 155.9727021   1.2028938
  85.1919221 157.0892599  -0.0109014  77.9300000 158.9470000  -1.5230000
  77.9980000 159.4370000  -2.6440000  77.0180000 159.3220000  -0.6290000
  76.8609811 158.7375175   0.1795942  76.1050000 160.4440000  -0.8630000
  76.5343474 161.1603097  -1.5634716  74.6680000 160.0640000  -1.3540000
  74.1174750 160.9868305  -1.5367714  74.6960000 159.2350000  -2.6190000
  75.2459992 158.3117287  -2.4368686  73.6760125 158.9962973  -2.9202423
  75.1861954 159.7987736  -3.4127061  73.8480000 159.3680000  -0.2860000
  73.7418960 160.0251198   0.5771556  72.8615637 159.1284809  -0.6830815
  74.3500210 158.4491758   0.0170475  76.0500000 161.3820000   0.3380000
  76.4060000 160.9950000   1.4650000  75.6190000 162.6210000   0.0700000
  75.5113114 162.8460658  -0.9086970  75.3400000 163.6630000   1.0550000
  75.3108881 163.2052015   2.0437731  76.3980000 164.7880000   1.0630000
  76.7089479 164.9421141   0.0297239  75.9054797 165.6877623   1.4317162
  77.6350000 164.4870000   1.9320000  77.3534345 164.7058065   2.9620220
  77.8362505 163.4206445   1.8295982  78.9010000 165.2860000   1.5650000
  79.7258400 164.8620526   2.1377186  79.0810792 165.1319159   0.5010785
  78.8000000 166.7610000   1.8480000  77.8634974 167.1328198   1.4322917
  78.8022180 166.9101746   2.9277413  79.9320000 167.4970000   1.2470000
  79.9298726 167.3592529   0.2464397  79.8398132 168.4817781   1.4514841
  80.7998580 167.1529088   1.6323865  73.9670000 164.1490000   0.6510000
  73.7590000 164.5370000  -0.5040000  72.9990000 163.9430000   1.5290000
  73.1994212 163.4763527   2.4020240  71.6220000 164.3140000   1.2460000
  71.5740623 164.8234576   0.2835790  70.7340000 163.0730000   1.1860000
  70.7644554 162.5570579   2.1456751  69.7084955 163.3696904   0.9659647
  71.0943447 162.4052375   0.4034758  71.1240000 165.2920000   2.2930000
  71.7690000 165.4810000   3.3220000  67.2720000 169.3060000  15.2510000
  67.2158405 169.5195343  16.2365702  68.3190000 168.4060000  14.8000000
  67.8728867 167.4114841  14.8045008  68.7100000 168.7560000  13.3750000
  69.1665361 169.7455949  13.3555872  69.4226006 168.0203084  13.0020945
  67.8219182 168.7536810  12.7430154  69.5620000 168.3540000  15.7080000
  70.3410000 167.4060000  15.5950000  69.7490000 169.3450000  16.6050000
  69.1371599 170.1484071  16.5880299  70.8990000 169.3690000  17.5060000
  71.5295440 168.4992664  17.3214005  71.7280000 170.6270000  17.2840000
  72.6750072 170.5606320  17.8196042  71.9216428 170.7750875  16.2216100
  70.9290000 172.1420000  17.8640000  71.9137453 172.9628484  17.5099055
  70.5130000 169.1770000  18.9920000  71.3410000 169.3840000  19.8850000
  69.9130000 166.6690000  21.9460000  70.7520000 167.6020000  22.7280000
  70.1214662 168.3894248  23.1409039  71.5017868 168.0441790  22.0719540
  71.3690000 166.7240000  23.8040000  70.7570166 166.7590685  24.7053022
  72.3750280 167.0744213  24.0346816  71.4040000 165.3430000  23.2190000
  71.3640454 164.5854106  24.0016627  72.2904170 165.1838955  22.6049558
  70.1430000 165.2610000  22.3490000  70.3366318 164.6894992  21.4412600
  68.9620000 164.6370000  23.1030000  69.0270000 164.4500000  24.3200000
  61.6640000 162.9760000  19.7200000  60.7424967 162.5847819  19.8537141
  62.0310000 163.4530000  18.3780000  62.2504172 164.5196419  18.4252273
  63.2720000 162.7180000  17.8280000  63.2539336 161.7172458  18.2595830
  63.1367533 162.6500931  16.7485571  64.6110000 163.3770000  18.1310000
  64.6613235 164.3063203  17.5636093  64.6387425 163.6010198  19.1973712
  65.8040000 162.4910000  17.7650000  66.6346532 162.7635183  18.4160360
  65.5208167 161.4552498  17.9524251  66.2410000 162.6140000  16.3680000
  65.9523267 161.8823323  15.7344154  67.0130000 163.5950000  15.8980000
  67.3980000 164.5900000  16.6930000  67.1039208 164.6030404  17.6591508
  67.9825636 165.3276978  16.3266846  67.3740000 163.6090000  14.6210000
  67.0623531 162.8732787  14.0031890  67.9587235 164.3553097  14.2728348
  60.8690000 163.2750000  17.4100000  60.6140000 164.1760000  16.6220000
  73.3270000 157.0730000  30.8310000  73.8324817 157.1684473  31.7001821
  73.5350000 155.8820000  30.0470000  73.9812942 156.1323796  29.0845912
  74.4800000 154.9510000  30.7940000  75.4843112 155.3734883  30.8250130
  74.1248056 154.7846479  31.8109877  74.6470000 153.3230000  30.0520000
  75.5045819 152.8479020  30.9507399  72.1630000 155.2560000  29.8760000
  71.5620000 154.8900000  30.8750000  71.6510000 155.1460000  28.6280000
  72.1765910 155.5283138  27.8548961  70.3220000 154.5620000  28.3510000
  69.5538719 155.1584230  28.8432987  70.0300000 154.5340000  26.8410000
  70.2690997 155.5282794  26.4637216  70.7176014 153.8069496  26.4089097
  68.5930000 154.1720000  26.4510000  68.3887158 153.1702178  26.8288904
  67.9273627 154.8856492  26.9365244  68.3590000 154.2040000  24.9380000
  69.2650664 153.8359697  24.4566515  67.5316917 153.5291900  24.7182459
  68.0350000 155.5870000  24.4130000  67.0510549 155.8746490  24.7834196
  68.7830748 156.2835217  24.7916038  68.0340000 155.6210000  22.9260000
  67.3405851 154.9759713  22.5749821  67.8149543 156.5552112  22.6107724
  68.9457812 155.3549029  22.5825668  70.1840000 153.1690000  28.9360000
  69.0900000 152.8020000  29.3630000  71.2960000 152.4220000  28.9970000
  72.1395485 152.8167696  28.6062542  71.3430000 151.0620000  29.5040000
  70.4663522 150.5105697  29.1641287  72.5930000 150.3480000  29.0010000
  72.7173537 150.5773278  27.9426786  73.4513176 150.7248809  29.5571940
  72.4930000 148.8540000  29.1830000  72.6557875 148.6720984  30.2453149
  71.4968215 148.5102283  28.9045194  73.5020000 148.0740000  28.4050000
  74.1500000 148.5570000  27.4670000  73.6160000 146.8190000  28.7510000
  74.2772513 146.2243878  28.2721635  73.0423255 146.4495183  29.4956356
  71.2670000 150.9760000  31.0080000  70.6020000 150.0760000  31.5100000
  76.4380000 160.4820000  32.6260000  76.1742508 161.2941210  33.1654397
  77.5990000 160.5820000  31.7480000  78.4890422 160.2237630  32.2652914
  77.3900000 159.7530000  30.4320000  76.3252909 159.7582017  30.1986167
  78.1790000 160.3240000  29.2400000  79.2439080 160.3186894  29.4724721
  77.9974162 159.7117529  28.3566645  77.8551768 161.3464682  29.0455871
  77.8090000 158.2790000  30.6280000  77.9089107 157.8653493  29.6245003
  78.7881013 158.3122477  31.1058648  76.9150000 157.4390000  31.4120000
  75.9357623 157.4048905  30.9344751  77.3239906 156.4305145  31.4735059
  76.8149511 157.8517906  32.4158396  77.9810000 162.0340000  31.4960000
  79.1620000 162.3370000  31.4500000  77.0070000 162.9230000  31.2780000
  76.0637701 162.5912005  31.1354315  77.2870000 164.3470000  31.0470000
  77.9557145 164.7444330  31.8105228  77.8980000 164.6320000  29.6600000
  78.7424758 163.9564250  29.5237675  76.9070000 164.4380000  28.5260000
  76.0624081 165.1136159  28.6613045  77.3950922 164.6531867  27.5754424
  76.5511065 163.4077377  28.5260660  78.4230000 165.9580000  29.6550000
  78.8065402 166.1470569  28.7954916  76.0690000 165.1850000  31.3550000
  75.0060000 164.6610000  31.6520000  78.4700000 171.7730000  23.6370000
  77.9455849 171.0766995  23.1268493  79.0370000 172.8940000  22.8940000
  78.4011696 173.7710053  23.0151638  80.4460000 173.2350000  23.4030000
  80.7202102 174.2285128  23.0482603  80.4502410 173.2249511  24.4929454
  81.5420000 172.3010000  22.9590000  81.7390000 171.0790000  23.5910000
  81.0972630 170.8036199  24.4279226  82.7490000 170.2040000  23.1640000
  82.8707962 169.2351837  23.6484185  83.5850000 170.5680000  22.1350000
  84.3820337 169.8985449  21.8114771  83.4120000 171.7850000  21.5120000
  84.0820297 172.0770859  20.7033924  82.3840000 172.6430000  21.9120000
  82.2369492 173.5935460  21.3992249  79.0150000 172.5900000  21.3850000
  79.1970000 171.4370000  20.9800000  78.7740000 173.6200000  20.5630000
  78.5356736 174.5192816  20.9561826  78.7010000 173.4570000  19.1160000
  78.3420461 172.4560717  18.8764297  77.7430000 174.4780000  18.5060000
  78.2416557 175.4469030  18.4801398  77.5060289 174.1646623  17.4892580
  76.5430000 174.5830000  19.2610000  75.9637929 175.2307068  18.8528397
  80.0830000 173.4810000  18.4490000  80.6270000 174.5510000  18.1810000
  80.6550000 172.2920000  18.1930000  80.2034261 171.4496964  18.5196572
  81.9520000 172.1690000  17.5180000  82.5974324 173.0002111  17.8019090
  82.6390000 170.8570000  17.9160000  82.5222743 170.8050644  18.9984865
  82.0857133 170.0405898  17.4518361  84.1210000 170.7370000  17.5570000
  84.2704373 171.2217194  16.5922117  85.0260000 171.3730000  18.5850000
  84.8774546 170.8884626  19.5500164  86.0650121 171.2566978  18.2767331
  84.7897106 172.4335721  18.6713397  84.4920000 169.3340000  17.4030000
  83.8959222 168.8851203  16.6084576  85.5492792 169.2631472  17.1475751
  84.3082909 168.8043458  18.3377814  81.7840000 172.2630000  15.9860000
  82.7620000 172.3850000  15.2500000  80.5330000 172.2180000  15.5250000
  79.8207039 172.1076980  16.2325077  80.1130000 172.3230000  14.1300000
  80.9732378 172.5013510  13.4848016  79.4510000 171.0160000  13.7090000
  80.2315940 170.2559593  13.6756769  78.7266880 170.7585436  14.4817797
  78.8000000 171.0780000  12.4550000  78.4080949 170.2246744  12.2553862
  79.1090000 173.4760000  14.0340000  78.5220000 173.8640000  15.0490000
  78.9080000 174.0220000  12.8310000  79.4877535 173.7349568  12.0553767
  77.9290000 175.0920000  12.6090000  78.0086655 175.8323772  13.4049863
  78.1780000 175.7890000  11.2640000  78.2223193 174.9543564  10.5643536
  77.3312502 176.4279715  11.0133403  79.4750000 176.6010000  11.1730000
  80.2582537 176.0647118  11.7087327  79.8930000 176.8030000   9.7490000
  79.1103938 177.3396697   9.2127053  80.8158610 177.3822670   9.7193683
  80.0573768 175.8342771   9.2771350  79.3620000 177.9360000  11.9000000
  79.1433968 177.7594274  12.9531544  80.3025604 178.4796008  11.8108622
  78.5591236 178.5249577  11.4565845  76.4870000 174.5490000  12.6960000
  75.5620000 175.2840000  13.0600000  76.3190000 173.2400000  12.4200000
  77.1355476 172.7523486  12.0800803  75.0540000 172.5140000  12.4790000
  74.3034627 173.0087481  11.8625446  75.2590000 171.1020000  11.9550000
  76.1085808 170.6261530  12.4447768  74.3654591 170.4973078  12.1100227
  75.6040000 171.0410000  10.1820000  75.7160858 169.7178209  10.1076225
  74.4220000 172.4990000  13.8630000  73.2190000 172.2250000  14.0000000
  75.2540000 172.7770000  14.8620000  76.2007669 173.0104517  14.5988800
  74.9140000 172.7710000  16.2710000  75.0829967 173.7633446  16.6890808
  73.8646160 172.5011819  16.3897041  75.7690000 171.7680000  17.0200000
  76.7200000 171.2210000  16.4550000  75.4550000 171.5040000  18.3030000
  74.3870000 172.0970000  19.1410000  73.4640034 172.1477991  18.5634214
  74.6827875 173.1021641  19.4414228  74.2870000 171.1650000  20.2980000
  73.5938432 170.3534455  20.0766134  73.9512143 171.6961357  21.1886426
  75.6810000 170.6590000  20.4730000  75.6958481 169.6907652  20.9733998
  76.2796261 171.3705493  21.0417215  76.2400000 170.5210000  19.0590000
  77.2791214 170.8457195  19.0053143  76.1310000 169.0770000  18.5620000
  77.0400000 168.3110000  18.7900000  75.0300000 168.7010000  17.9090000
  74.2845038 169.3745058  17.8054398  74.8160000 167.3390000  17.3950000
  75.6944433 166.7225716  17.5859260  73.6130000 166.7060000  18.0960000
  73.6908044 166.9573599  19.1537636  72.7193021 167.1691581  17.6778031
  73.5230000 165.2200000  17.9420000  73.3190983 164.9707169  16.9006629
  74.4637546 164.7618389  18.2472396  72.1890000 164.5820000  18.9770000
  70.7500000 165.0420000  18.0130000  70.8021719 164.5683287  17.0326875
  69.8470955 164.7129225  18.5273657  70.7242515 166.1249334  17.8917833
  74.6230000 167.2940000  15.8660000  74.0200000 168.2050000  15.2840000
  75.1400000 166.2160000  15.2270000  75.6590961 165.5668614  15.8008098
  75.0620000 165.9600000  13.7800000  74.0844582 166.3034773  13.4415705
  76.1360000 166.7510000  13.0470000  77.1207677 166.4120398  13.3686188
  76.0321269 166.5968501  11.9729663  76.0253658 167.8114050  13.2737169
  75.1810000 164.4680000  13.4270000  75.7730000 163.6930000  14.1760000
  74.6310000 164.0740000  12.2720000  74.1165267 164.7386156  11.7119083
  74.7290000 162.6960000  11.7960000  74.7569309 161.9937567  12.6291707
  73.5410000 162.3570000  10.9160000  73.5048905 163.0460229  10.0721733
  73.6411085 161.3362858  10.5469186  72.6220652 162.4447330  11.4956214
  76.0340000 162.5300000  11.0070000  76.3120000 163.3400000  10.1090000
  76.8410000 161.5130000  11.3730000  76.5753365 160.9856733  12.1924198
  78.0740000 161.1490000  10.6870000  78.1466603 161.6996986   9.7491563
  79.2950000 161.4820000  11.5450000  79.2078606 160.8142668  12.4021105
  80.1989660 161.2392685  10.9864063  79.3700000 162.9160000  12.0280000
  79.8600000 163.9260000  11.2040000  80.1919270 163.6705220  10.1976924
  79.9300000 165.2460000  11.6470000  80.3012026 166.0293869  10.9862312
  79.5290000 165.5590000  12.9350000  79.5680000 166.8490000  13.3980000
  79.8931630 167.4724458  12.7444068  79.0750000 164.5660000  13.7800000
  78.7658166 164.8090934  14.7965686  79.0130000 163.2520000  13.3300000
  78.6795587 162.4610257  14.0017713  78.0390000 159.6330000  10.3690000
  77.3210000 158.8980000  11.0590000  78.7750000 159.1700000   9.3110000
  79.2629245 159.8537170   8.7501434  78.8380000 157.7520000   8.8990000
  78.2409400 157.0927242   9.5290587  78.5280000 157.4330000   7.4150000
  79.3029321 156.7607176   7.0467393  77.1760000 156.7890000   7.2330000
  76.4004642 157.4609299   7.6006350  77.0089228 156.5864110   6.1751043
  77.1403454 155.8536786   7.7915735  78.7470000 158.6170000   6.4920000
  79.7877250 158.9358225   6.5498418  78.5124893 158.3279617   5.4675191
  78.0983518 159.4390766   6.7945665  80.1560000 157.1400000   9.1920000
  81.1960000 157.7030000   8.8360000  80.1240000 155.9050000   9.6900000
  79.2542623 155.5091447  10.0170385  81.3480000 155.1520000   9.9060000
  82.1775867 155.8319956  10.0996261  81.1840000 154.2380000  11.0990000
  82.1503003 153.8333386  11.4000183  80.8244639 154.9259583  11.8642105
  80.2130000 153.1120000  10.9760000  79.7380000 152.7310000   9.9010000
  79.9960000 152.4910000  12.0980000  79.3539245 151.7118071  12.1244083
  80.4705845 152.7908712  12.9376116  81.7540000 154.4220000   8.5900000
  81.0080000 154.5330000   7.6070000  82.8850000 153.6720000   8.5050000
  83.9290000 153.4070000   9.5130000  83.6790991 152.5095031  10.0788173
  84.0107213 154.2541816  10.1939581  85.1150000 153.2380000   8.6960000
  85.8636439 152.6557101   9.2331869  85.5323416 154.2095199   8.4312804
  84.6380000 152.5260000   7.4970000  84.5961233 151.4492879   7.6614272
  85.2905409 152.7385960   6.6501866  83.2460000 153.0600000   7.2240000
  83.2522722 153.8673159   6.4916750  82.3310000 151.9440000   6.7400000
  82.5490000 151.4150000   5.6380000  81.3200000 151.5640000   7.5650000
  81.2714730 151.9778210   8.4850525  80.3770000 150.4890000   7.2350000
  80.6187085 150.0896348   6.2500210  80.4410000 149.3400000   8.2620000
  79.9957228 149.6072309   9.2203398  79.8945511 148.5020965   7.8290896
  81.8270000 148.8430000   8.5560000  82.4470000 149.1180000   9.7540000
  83.6450000 148.5600000   9.6820000  84.2962548 148.6465075  10.5517601
  83.8340000 147.9750000   8.5120000  84.6523662 147.4762384   8.1932312
  82.6920000 148.1650000   7.7760000  82.6308553 147.7838539   6.7566422
  78.9750000 151.0270000   7.0640000  78.0130000 150.2670000   7.1150000
  78.8690000 152.3260000   6.8130000  79.7110347 152.8837228   6.8082861
  77.5960000 152.9910000   6.5430000  77.8484924 153.9462016   6.0826343
  77.0782799 152.3639878   5.8171068  76.6770000 153.2400000   7.7250000
  75.5860000 153.8030000   7.5540000  77.1090000 152.8520000   8.9370000
  77.9587527 152.3124525   9.0201156  76.3110000 153.0700000  10.1330000
  75.2592788 152.9211759   9.8883921  76.6910000 152.1100000  11.2670000
  76.8195656 151.1256792  10.8167971  77.6326978 152.4311657  11.7121493
  75.6290000 152.0390000  12.3350000  74.5710000 151.1440000  12.2330000
  74.5269476 150.4795742  11.3700416  73.5780000 151.0860000  13.2080000
  72.7620698 150.3690463  13.1166918  73.6400000 151.9280000  14.3050000
  72.6680000 151.8840000  15.2740000  71.9876231 151.2312465  15.0934459
  74.6780000 152.8370000  14.4200000  74.7272471 153.5087885  15.2769570
  75.6620000 152.8910000  13.4350000  76.4770517 153.6099928  13.5177049
  76.3780000 154.5240000  10.5600000  77.4680000 155.0780000  10.7570000
  75.1860000 155.1400000  10.6590000  74.3722214 154.6015390  10.3983785
  75.0040000 156.5450000  11.0030000  75.9187006 157.1080580  10.8175605
  73.8230000 157.2210000  10.2630000  72.8976778 156.7122367  10.5332575
  73.7240000 158.6930000  10.6470000  74.6488445 159.2025606  10.3766089
  72.8888737 159.1517482  10.1176468  73.5633979 158.7786664  11.7216941
  73.9130000 157.0640000   8.7370000  74.3467217 157.9750895   8.3248081
  74.5668822 156.2197571   8.5183871  72.5730000 156.8280000   8.1210000
  71.9186618 157.6720977   8.3388081  72.6821993 156.7226592   7.0416122
  72.1388211 155.9167659   8.5323892  74.8700000 156.6950000  12.4900000
  73.9500000 156.1290000  13.0940000  75.7890000 157.4950000  13.0640000
  76.4664848 157.9073116  12.4386099  75.8660000 157.8250000  14.4790000
  75.1293752 157.2435525  15.0334384  77.2790000 157.5010000  15.0400000
  78.0844732 157.9010579  14.4241543  77.3093871 157.9672508  16.0247776
  77.5780000 156.0450000  15.2450000  76.8750000 155.2850000  16.1600000
  77.4110000 154.0760000  16.1130000  76.9736489 153.3114497  16.7550948
  78.4240000 154.0190000  15.2560000  79.0034019 153.2239980  15.0271656
  78.5570000 155.2790000  14.7090000  79.3504268 155.4796211  13.9890512
  75.6170000 159.3060000  14.6350000  76.4580000 160.0930000  14.2070000
  74.4910000 159.7070000  15.2370000  73.7878807 159.0432135  15.5287363
  74.2640000 161.1300000  15.5180000  74.6183746 161.7184297  14.6716736
  72.7850000 161.4460000  15.7480000  72.4471424 160.7479474  16.5139465
  72.7556314 162.4611396  16.1438903  71.8770000 161.3490000  14.5420000
  71.8904257 162.2834756  13.9810402  72.2481945 160.5415782  13.9108234
  70.4620000 161.0410000  14.9730000  70.2450000 159.9640000  15.5800000
  69.5750000 161.8910000  14.7310000  75.0470000 161.4040000  16.8030000
  74.6880000 160.8770000  17.8650000  76.1580000 162.1640000  16.6830000
  76.4341230 162.4536161  15.7556500  77.0620000 162.4460000  17.7940000
  76.7308734 161.9131249  18.6853464  78.5210000 162.0260000  17.4790000
  79.0619729 161.9837681  18.4243386  78.6220000 160.6850000  16.7790000
  78.0816174 160.7266036  15.8332964  79.6696115 160.4520869  16.5883153
  78.1874872 159.9108096  17.4113990  79.1320000 162.9940000  16.6600000
  80.0344017 162.7279994  16.4689105  76.9670000 163.8890000  18.2790000
  76.9410000 164.8300000  17.4700000  76.9310000 164.0240000  19.6280000
  76.9598484 163.1337373  20.1041297  76.8590000 165.2400000  20.4360000
  76.5335747 166.0831414  19.8266477  75.8410000 165.0330000  21.5740000
  74.8800251 164.8950883  21.0784127  76.1412267 164.0993345  22.0496392
  75.7140000 166.1340000  22.6410000  76.7034590 166.5487114  22.8335777
  74.7870000 167.2360000  22.1800000  73.7971527 166.8221107  21.9876545
  74.7166332 167.9999511  22.9542919  75.1780057 167.6814802  21.2652529
  75.1570000 165.5650000  23.9160000  75.8220703 164.7854688  24.2876343
  75.0730114 166.3559621  24.6612692  74.1714546 165.1403908  23.7249340
  78.2350000 165.5340000  21.0230000  78.8500000 164.6740000  21.6520000
  78.7130000 166.7530000  20.8090000  78.1908457 167.3447029  20.1786494
  80.0100000 167.2210000  21.2810000  80.6802333 166.3967914  21.5250630
  80.6960000 168.1200000  20.2250000  81.4433539 168.7284874  20.7342204
  81.3620000 167.3160000  19.1290000  80.6151431 166.7075657  18.6189881
  81.8286436 167.9929850  18.4134344  82.1224851 166.6676587  19.5642201
  79.7540000 169.0440000  19.6490000  80.1995418 169.5909059  18.9978574
  79.8870000 167.8610000  22.6760000  79.1000000 168.8000000  22.8560000
  80.6280000 167.3070000  23.6660000  81.1008164 166.4411238  23.4496615
  80.6570000 167.7880000  25.0520000  80.3401775 168.8283416  25.1255660
  79.8100000 166.9440000  26.0290000  79.9870152 167.3063250  27.0416625
  78.3270000 167.0420000  25.7080000  78.1491255 166.6793935  24.6955880
  77.7608170 166.4358542  26.4151949  78.0064294 168.0811078  25.7827738
  80.2620000 165.4920000  26.0660000  81.3023156 165.4428545  26.3876057
  79.6391952 164.9347708  26.7657924  80.1688341 165.0564621  25.0711494
  82.0960000 167.9590000  25.5330000  82.9550000 167.1890000  25.1150000
  82.3680000 168.9790000  26.3660000  81.6223893 169.6103400  26.6220740
  83.7170000 169.2550000  26.8710000  84.4343985 169.1687865  26.0549082
  83.8110000 170.6600000  27.4560000  82.9013829 170.6742638  28.0564103
  84.6769959 170.7830527  28.1063916  83.7700000 171.7900000  26.4530000
  84.7600000 171.9200000  25.4770000  85.5383093 171.1593546  25.4157408
  84.7660000 173.0000000  24.5880000  85.5203701 173.0612195  23.8036023
  83.8140000 174.0020000  24.7150000  83.8010000 175.0670000  23.8440000
  84.4959095 175.0197648  23.1833417  82.8600000 173.9260000  25.7190000
  82.1249643 174.7220089  25.8381335  82.8430000 172.8250000  26.5790000
  82.0945717 172.7619648  27.3689251  84.1980000 168.2640000  27.9180000
  85.3830000 167.9220000  27.9400000  82.8770000 164.6020000  30.1140000
  83.5935602 164.7511514  30.8099847  81.9920000 163.4400000  30.2640000
  80.9399958 163.7031991  30.3740569  82.1360000 162.5020000  29.0790000
  83.1829161 162.2222408  28.9615206  81.5380591 161.6066291  29.2489352
  81.7905613 163.0027112  28.1745335  82.4220000 162.7480000  31.5410000
  83.4550000 163.1320000  32.0770000  81.6780000 161.7430000  32.0460000
  80.8013698 161.4245763  31.6584112  82.0720000 161.2480000  33.3310000
  83.0867852 161.5784017  33.5526864  81.1480000 161.7580000  34.4190000
  80.1765269 162.0406176  34.0134554  81.0110697 161.0137830  35.2035324
  81.7980000 163.2320000  35.2350000  80.7811957 163.3835729  36.0788204
  82.2940000 159.7790000  33.4630000  83.4700000 159.4170000  33.6080000
  81.2630000 158.9350000  33.5730000  80.2891275 159.2024048  33.5859013
  81.6030000 157.5430000  33.8590000  82.5003726 157.5181600  34.4772270
  80.5070000 156.8300000  34.5800000  79.6300280 156.9612955  33.9461381
  80.7168353 155.7664036  34.6932778  80.2140000 157.4020000  35.9210000
  80.8600000 157.0600000  36.9260000  79.1650000 158.2130000  35.9670000
  78.9003655 158.6422135  36.8421252  78.6359004 158.3974375  35.1266803
  82.0450000 156.7880000  32.6470000  81.5610000 155.6930000  32.3920000
  82.9980000 157.3610000  31.9080000  83.2902577 158.2996326  32.1396326
  83.5150000 156.7620000  30.7030000  82.8915779 155.9105213  30.4301847
  83.5260000 157.7580000  29.5320000  84.1642727 158.5937790  29.8186717
  83.9730272 157.2329908  28.6878246  82.1390000 158.2870000  29.1300000
  81.7507324 158.9076093  29.9375848  82.2220000 159.0710000  27.9170000
  82.6097780 158.4508954  27.1087938  81.2298360 159.4354017  27.6506866
  82.8890121 159.9182433  28.0762922  81.1500000 157.1590000  28.8600000
  81.0341327 156.5537164  29.7590584  80.1847742 157.5807164  28.5796507
  81.5228580 156.5347917  28.0479409  84.8530000 156.1140000  30.9230000
  85.6330000 156.5460000  31.7940000  85.0560000 155.0050000  30.1980000
  84.2913629 154.7598261  29.5853670  86.2540000 154.1970000  30.1560000
  87.0243440 154.6587247  30.7736403  85.9920000 152.8000000  30.6740000
  85.0168151 152.5157088  30.2786620  86.7606389 152.1629651  30.2364149
  85.9860000 152.5920000  32.1630000  86.0220000 153.5150000  32.9960000
  85.9460000 151.3380000  32.5220000  85.9387041 151.0966400  33.5027099
  85.9225238 150.6146955  31.8174575  86.5790000 154.0990000  28.6970000
  85.6710000 153.9200000  27.8790000  87.8670000 154.2030000  28.3590000
  88.5387953 154.3248875  29.1032674  88.3570000 154.1450000  26.9900000
  87.5271164 154.2697359  26.2944187  89.3890000 155.2730000  26.7370000
  90.2425994 154.9973078  27.3562423  89.6681065 155.2092901  25.6852678
  88.9630000 156.7040000  27.0650000  88.5951081 156.7356897  28.0905497
  90.0730000 157.6120000  26.9250000  90.4411633 157.5812058  25.8995214
  89.7471247 158.6244944  27.1632459  90.8715969 157.3181571  27.6061752
  87.8280000 157.1660000  26.1670000  86.9675816 156.5105379  26.3017187
  87.5504187 158.1873104  26.4277201  88.1505165 157.1320921  25.1263596
  89.0160000 152.8080000  26.7860000  89.4240000 152.1770000  27.7660000
  89.1250000 152.3810000  25.5180000  88.6850567 152.9413916  24.8021016
  89.7850000 151.1490000  25.1200000  90.5441776 150.8855790  25.8564496
  88.7840000 150.0060000  25.0230000  89.3237882 149.0891520  24.7861081
  88.2866595 149.8955527  25.9866150  87.8170000 150.2570000  24.0190000
  87.1996200 149.5229574  23.9787111  90.4980000 151.3380000  23.7970000
  89.9800000 151.9890000  22.8740000  91.6920000 150.7730000  23.7160000
  92.0500552 150.2402554  24.4957942  92.5190000 150.8940000  22.5260000
  93.2697660 150.1038119  22.5332374  91.8887866 150.7876128  21.6430435
  93.2190000 152.2400000  22.4740000  93.0030000 153.1080000  23.3350000
  94.0760000 152.4160000  21.4660000  94.2638847 151.6571542  20.8265067
  94.8650000 153.6340000  21.3430000  94.8583829 154.1807716  22.2859190
  96.3380000 153.2790000  20.9840000  96.3240981 152.8832201  19.9684882
  96.8966735 154.2147844  21.0010716  97.0240000 152.2450000  21.9370000
  96.5413975 151.2847472  21.7550378  98.0698675 152.1883870  21.6352414
  96.9400000 152.5870000  23.4450000  97.5958905 153.4381531  23.6278798
  95.9099933 152.8692496  23.6629927  97.3300000 151.4870000  24.3480000
  98.3213116 151.3691475  24.5013347  96.4860000 150.6530000  24.9630000
  95.1760000 150.7580000  24.7710000  94.8145488 151.4729898  24.1559857
  94.5472837 150.1223765  25.2408916  96.9480000 149.7110000  25.7740000
  97.9425230 149.6240056  25.9271537  96.3032241 149.0848749  26.2347930
  94.2020000 154.6110000  20.3590000  93.4370000 154.1330000  19.5140000
  94.3990000 155.9610000  20.4390000  95.2310000 156.7470000  21.3670000
  96.2767700 156.6811618  21.0667821  95.1188256 156.3576772  22.3789010
  94.6770000 158.1320000  21.2230000  95.4584616 158.8581269  21.4469567
  93.8490445 158.2635645  21.9196218  94.2200000 158.2500000  19.8430000
  95.0370615 158.5402358  19.1824906  93.4063801 158.9695419  19.7514485
  93.7230000 156.8490000  19.4720000  92.6505395 156.7624212  19.6464441
  94.0290000 156.5170000  18.0140000  95.0650000 155.8970000  17.7060000
  93.0700000 156.8670000  17.1350000  92.2350499 157.2814916  17.5237857
  93.1370000 156.6710000  15.6900000  94.1719851 156.5141117  15.3862055
  92.3240000 155.4610000  15.2810000  92.7540675 154.5631035  15.7247601
  91.2955046 155.5776440  15.6226012  92.3420000 155.3450000  13.8720000
  91.8276095 154.5788426  13.6074151  92.6160000 157.9020000  14.9830000
  91.7490000 158.5890000  15.5210000  93.1730000 158.2140000  13.8050000
  93.9520971 157.6618623  13.4759849  92.7500000 159.3740000  13.0010000
  92.0081766 159.9759984  13.5257811  93.9090000 160.2690000  12.6060000
  93.5530987 160.9644744  11.8459014  94.4630000 161.0420000  13.7730000
  94.8195481 160.3471481  14.5333643  95.2901684 161.6667045  13.4359009
  93.6809725 161.6726282  14.1958968  94.9280000 159.4820000  11.9870000
  95.6618391 160.0481104  11.7368010  92.0170000 158.8910000  11.7890000
  91.4240000 159.6880000  11.0630000  92.0260000 157.5710000  11.6060000
  92.5865958 157.0301014  12.2488533  91.3910000 156.8810000  10.4980000
  91.7400702 157.3046979   9.5563370  91.7320000 155.3640000  10.5170000
  91.2525630 154.9561933  11.4069063  91.2684797 154.9374833   9.6274313
  93.2200000 155.0130000  10.5340000  93.6788859 155.5561910  11.3601162
  93.2166265 153.9463752  10.7584980  94.0140000 155.2600000   9.2630000
  94.3350000 156.4360000   8.9680000  94.3670000 154.2620000   8.5920000
  89.8740000 157.1260000  10.4690000  89.1550000 156.6820000  11.3600000
  89.4150000 157.8540000   9.4410000  90.1295257 158.2825921   8.8701575
  88.0190000 158.1760000   9.1600000  87.9538533 158.7528162   8.2374285
  87.1790000 156.8820000   8.9960000  87.7813469 156.0696374   8.5893743
  86.8185199 156.6055687   9.9868279  85.9680000 157.0010000   8.1160000
  84.6830000 156.9400000   8.6400000  83.8650000 157.0380000   7.6060000
  82.7936679 157.0083674   7.8046663  84.5380000 157.1600000   6.4650000
  84.1600305 157.2601573   5.5337603  85.8820000 157.1260000   6.7740000
  86.6256722 157.1968042   5.9802496  87.4420000 159.1190000  10.2010000
  86.2370000 159.0960000  10.4340000  88.2860000 159.9880000  10.8010000
  89.2788778 159.9426548  10.6214539  87.8040000 160.9320000  11.8220000
  87.2293422 160.3833672  12.5682370  88.9460000 161.6540000  12.5220000
  89.5964750 160.9169106  12.9928298  89.5138736 162.2199806  11.7835654
  88.4420000 162.5380000  13.5090000  89.1731643 162.9854382  13.9412010
  86.8040000 161.9180000  11.2710000  86.9440000 162.3940000  10.1400000
  85.7520000 162.1710000  12.0530000  85.6333498 161.6337378  12.8999775
  84.6960000 163.0990000  11.6700000  84.5765331 163.0868169  10.5866356
  83.3590000 162.7120000  12.3150000  83.5770376 162.7092644  13.3829660
  82.5346599 163.3964444  12.1147519  82.8660000 161.3330000  11.9730000
  82.9040000 160.7260000  10.7530000  83.3772722 161.2815459   9.9433816
  82.3090000 159.4900000  10.8180000  82.3173783 158.7973439  10.0829783
  81.7830000 159.3140000  12.0720000  81.0970000 158.2240000  12.6240000
  80.8766515 157.3714761  11.9815452  80.7430000 158.2990000  13.9490000
  80.1878027 157.4789421  14.4043690  81.0790000 159.4070000  14.7320000
  80.8003454 159.4499303  15.7849046  81.7740000 160.4820000  14.1980000
  82.0593965 161.2936199  14.8672703  82.1320000 160.4490000  12.8350000
  85.0710000 164.5480000  11.9600000  84.4340000 165.4300000  11.4150000
  86.1090000 164.7960000  12.7920000  86.5530354 163.9872155  13.2028522
  86.6070000 166.1350000  13.1680000  86.0735257 166.8890640  12.5893016
  86.3980000 166.4280000  14.6750000  87.0625558 165.9003238  15.3591219
  86.5403773 167.5027765  14.7876242  84.9910000 166.1300000  15.1250000
  83.9670000 167.0350000  14.8960000  84.1950238 167.9920286  14.4267439
  82.6570000 166.7320000  15.2590000  81.8638653 167.4605650  15.0909791
  82.3640000 165.5170000  15.8280000  81.3394110 165.2850828  16.1187433
  83.3570000 164.5980000  16.0300000  83.1222682 163.6344287  16.4822516
  84.6650000 164.8920000  15.6590000  85.4486461 164.1451965  15.7866055
  88.0750000 166.1690000  12.8000000  88.9010000 165.5910000  13.5170000
  88.4050000 166.7560000  11.6210000  87.5400000 167.4640000  10.6550000
  87.4336671 168.5071869  10.9525814  86.5575498 166.9927096  10.6271421
  88.2800000 167.3080000   9.3750000  88.0182942 168.1150144   8.6906486
  88.0360162 166.3498144   8.9162477  89.7270000 167.3640000   9.7590000
  90.0747371 168.3966032   9.7891418  90.3457387 166.7928550   9.0668617
  89.8040000 166.7460000  11.1630000  90.1219992 165.7060939  11.0883664
  90.7400000 167.4960000  12.1000000  90.4950000 168.6570000  12.4500000
  91.7780000 166.8000000  12.5270000  91.9099876 165.8539190  12.1989615
  92.7460000 167.3460000  13.4580000  93.7530404 167.1991567  13.0676080
  92.5618333 168.4115402  13.5951350  92.6310000 166.6530000  14.7910000
  93.5110000 166.8100000  15.6410000  91.5500000 165.8540000  14.9660000
  90.8646962 165.8411161  14.2241833  91.2780000 165.0780000  16.1740000
  92.0458118 165.2907213  16.9178508  89.9040000 165.4240000  16.7730000
  89.1097585 165.2933299  16.0380136  89.7619389 164.7169181  17.5902844
  89.8620000 166.8280000  17.3120000  90.3150000 167.1150000  18.5950000
  90.6474213 166.2935871  19.2297254  90.3490000 168.4240000  19.0740000
  90.7064566 168.6300629  20.0828928  89.9350000 169.4650000  18.2600000
  89.9700000 170.7640000  18.7030000  90.3010401 170.8454736  19.6004264
  89.4700000 169.1990000  16.9840000  89.1262888 170.0125577  16.3451832
  89.4420000 167.8880000  16.5170000  89.0854733 167.6760150  15.5090064
  91.3660000 163.5970000  15.9290000  90.9900000 163.1080000  14.8580000
  91.8280000 162.8770000  16.9570000  92.1197988 163.3838541  17.7804389
  91.9400000 161.4310000  16.9640000  91.7442308 160.9970339  15.9834659
  93.3260000 161.0170000  17.4080000  93.5331346 161.4364643  18.3925024
  93.3824831 159.9296007  17.4577266  94.0622305 161.3862795  16.6940697
  90.9110000 160.8860000  17.9170000  90.7300000 161.4190000  19.0140000
  90.2390000 159.8240000  17.5030000  90.4028459 159.4863886  16.5653047
  89.2040000 159.1700000  18.3050000  88.9166150 159.8213242  19.1304004
  87.9610000 158.8720000  17.4610000  87.1664575 158.3364127  17.9805649
  87.5877488 159.8401133  17.1270235  88.2730000 158.0830000  16.2250000
  88.5880000 158.5750000  14.9900000  88.5744606 159.6584695  14.8716350
  88.8650000 157.5450000  14.1310000  89.1430599 157.6451437  13.1652084
  88.7410000 156.3570000  14.8050000  88.9210000 155.0460000  14.3680000
  89.1343217 154.8701971  13.3136349  88.8160000 154.0460000  15.3100000
  89.0021193 153.0130135  15.0160639  88.4760000 154.3220000  16.6370000
  88.3711515 153.5203880  17.3681118  88.2630000 155.6170000  17.0610000
  87.9662307 155.7761673  18.0976747  88.4100000 156.6640000  16.1390000
  89.6820000 157.8910000  18.9930000  90.5690000 157.1750000  18.5090000
  89.0680000 157.6120000  20.1360000  88.5065869 158.3507046  20.5350365
  89.3290000 156.4330000  20.9430000  89.5019326 155.5449932  20.3350219
  90.5450000 156.6230000  21.9070000  91.3476056 155.9835321  21.5395692
  91.0510000 158.0750000  22.0080000  90.2490267 158.7150300  22.3758315
  91.8950346 158.1191304  22.6963003  91.3673673 158.4193791  21.0234111
  90.2180000 156.1210000  23.2000000  90.9672965 156.2397487  23.7882634
  87.9660000 156.0030000  21.5540000  87.2520000 156.8440000  22.1000000
  87.5850000 154.7180000  21.3930000  88.1733952 154.1165680  20.8342783
  86.3110000 154.1840000  21.8820000  85.4583896 154.7373638  21.4883717
  86.1560000 152.6790000  21.5340000  87.0281116 152.1493049  21.9173338
  84.9010000 152.0840000  22.1340000  84.0283757 152.6129132  21.7507530
  84.8334665 151.0298980  21.8649108  84.9357152 152.1799168  23.2192161
  86.1860000 152.4300000  20.0340000  85.1598826 152.3525385  19.6745788
  86.6765117 153.2755075  19.5516985  86.9250000 151.1720000  19.7060000
  86.4347721 150.3259320  20.1876072  86.9282468 151.0229140  18.6262491
  87.9514013 151.2489003  20.0647292  86.1230000 154.4380000  23.3820000
  87.0270000 154.1530000  24.1820000  84.9260000 154.9810000  23.7410000
  84.3091966 155.2144154  22.9760358  84.4840000 155.2790000  25.1050000
  85.2449100 154.9930147  25.8311732  84.2000000 156.7570000  25.2590000
  83.4332507 157.0565533  24.5445328  83.8500404 156.9566665  26.2717990
  85.1118029 157.3241530  25.0717780  83.2380000 154.4580000  25.4080000
  82.3600000 154.3000000  24.5500000  83.2030000 153.8620000  26.5950000
  83.9579090 154.0325005  27.2439540  82.0940000 153.0280000  27.0310000
  81.2504733 153.1489875  26.3513502  82.5040000 151.5630000  27.0410000
  83.2829476 151.4811140  27.7990466  81.6211741 151.0130952  27.3670722
  83.0050000 150.9840000  25.7410000  82.2739380 150.7802265  24.9586154
  83.7405442 151.6992393  25.3728839  83.7070000 149.7100000  26.0820000
  84.9270000 149.7150000  26.2990000  82.9320000 148.6260000  26.2890000
  83.3589222 147.7408773  26.5222308  81.9281419 148.7041567  26.2098690
  81.7230000 153.3720000  28.4550000  82.5830000 153.8220000  29.2260000
  80.4680000 153.0660000  28.8350000  79.8282540 152.7355733  28.1267327
  79.9690000 153.2420000  30.1820000  80.0997520 154.2788646  30.4917014
  78.4890000 152.8970000  30.2510000  77.9042209 153.6013891  29.6594185
  78.3149657 151.8847084  29.8862017  77.8010000 152.9530000  31.9210000
  76.5636891 152.6109980  31.5731572  80.7960000 152.3740000  31.1420000
  80.9900000 151.1820000  30.8740000  81.3370000 152.9940000  32.2260000
  81.1628051 153.9844069  32.3200725  82.1610000 152.3280000  33.2530000
  83.0522831 151.9065971  32.7880987  82.5980000 153.3230000  34.3410000
  83.0895935 154.1469388  33.8237380  81.6836064 153.6841091  34.8117276
  83.5370000 152.7610000  35.4140000  82.9576862 152.1108125  36.0695552
  84.3132529 152.1779454  34.9184390  84.1780000 153.8610000  36.2330000
  83.4105965 154.4093871  36.7793172  84.8877402 153.4297486  36.9389677
  84.8930000 154.7970000  35.3610000  85.2062960 154.4500962  34.4656773
  85.1530000 156.0580000  35.6770000  84.7940000 156.5400000  36.8660000
  84.3219162 155.9414309  37.5285345  84.9955679 157.5017661  37.0994011
  85.7710000 156.8520000  34.8070000  86.0423230 156.4915582  33.9033598
  85.9660999 157.8116937  35.0540279  81.3780000 151.2070000  33.9020000
  81.9400000 150.1490000  34.1860000  78.1370000 149.4760000  32.7750000
  77.4874945 149.9953574  33.3481578  77.6140000 148.3930000  31.9410000
  77.6526134 147.4453244  32.4781398  76.1710000 148.6910000  31.5880000
  75.7100776 147.8485279  31.0723542  75.5902615 148.9334106  32.4779887
  76.0060000 150.0980000  30.4880000  74.6791200 150.0563342  30.4070581
  78.4060000 148.1000000  30.6980000  78.0740000 147.1480000  30.0050000
  79.3620000 148.9440000  30.3580000  79.5468216 149.7531363  30.9335334
  80.1740000 148.7460000  29.1610000  81.0989766 149.3010908  29.3171784
  80.3951510 147.6799935  29.1078803  79.5470000 149.1880000  27.8460000
  80.1080000 148.9290000  26.7720000  78.4160000 149.8990000  27.9250000
  78.0429375 150.0890664  28.8441292  77.6900000 150.3990000  26.7700000
  77.3748347 149.5753763  26.1293644  76.4470000 151.1460000  27.2520000
  76.0084594 150.6252612  28.1032417  76.8026708 152.1259879  27.5701542
  75.3840000 151.3370000  26.2060000  75.1320000 150.4590000  25.3610000
  74.7010000 152.4690000  26.2830000  73.9717633 152.6619204  25.6113637
  74.9124968 153.1341771  27.0130064  78.5580000 151.3340000  25.9470000
  79.1880000 152.2010000  26.5360000  78.5970000 151.1730000  24.5920000
  78.1610749 150.3711279  24.1594843  79.3790000 152.0810000  23.7450000
  80.3362816 152.2661923  24.2322524  79.6430000 151.5260000  22.3430000
  80.3030113 150.6655159  22.4527787  78.7324293 151.2213422  21.8271079
  80.3480000 152.4960000  21.4350000  79.7550000 152.9560000  20.2600000
  80.6380000 153.7830000  19.7150000  80.3801565 154.2307447  18.7552394
  81.7240000 153.9160000  20.4800000  82.5367872 154.4894395  20.3049459
  81.5460000 153.1130000  21.5870000  82.3099606 153.0783921  22.3637031
  78.6930000 153.4390000  23.7110000  77.5700000 153.5680000  23.2160000
  79.3460000 154.4270000  24.3160000  80.2418623 154.2182976  24.7331013
  78.8050000 155.7670000  24.4790000  77.7179936 155.7478986  24.4005697
  79.1830000 156.3030000  25.8470000  80.2711506 156.3152232  25.9092748
  78.8039359 157.3223473  25.9200858  78.6230000 155.4750000  26.9810000
  78.9860298 154.4562290  26.8452948  79.0265226 155.8835615  27.9074713
  76.8360000 155.4550000  27.0760000  76.4740000 157.1510000  27.2390000
  76.8522374 157.6889633  26.3697296  75.3948610 157.2876284  27.3089451
  76.9480511 157.5392291  28.1404738  79.2360000 156.7310000  23.4040000
  78.5790000 157.7480000  23.1750000  80.3210000 156.4080000  22.7480000
  80.8066728 155.5496262  22.9657516  80.8550000 157.2500000  21.7080000
  80.4979549 156.9118143  20.7352470  80.5452265 158.2825357  21.8692757
  82.3520000 157.1810000  21.7290000  82.9230000 156.0910000  21.8270000
  82.9910000 158.3420000  21.6330000  82.4398896 159.1878538  21.6028686
  84.4410000 158.4600000  21.5670000  84.9069245 157.5811345  22.0126557
  84.8990000 158.5690000  20.0960000  84.5634919 159.4962411  19.6315030
  85.9883670 158.5327093  20.0880902  84.4270000 157.4540000  19.2160000
  85.0870000 156.2970000  18.9320000  86.0799114 156.1763230  19.3652017
  84.3150000 155.5000000  18.1220000  84.5756814 154.5861577  17.7798934
  83.1270000 156.1350000  17.8700000  82.0160000 155.7240000  17.1170000
  82.0724259 154.7771326  16.5800112  80.9110000 156.5550000  17.1050000
  80.0129776 156.2515460  16.5668816  80.9190000 157.7900000  17.7750000
  80.0474542 158.4442112  17.7523043  82.0360000 158.2150000  18.4860000
  81.9853474 159.1785523  18.9930523  83.1630000 157.3720000  18.5510000
  84.9620000 159.6790000  22.2990000  84.2250000 160.6410000  22.5570000
  86.2650000 159.6400000  22.6020000  86.7744846 158.7915561  22.4003377
  86.9890000 160.7560000  23.1750000  86.2676986 161.4891355  23.5360204
  87.8950000 160.3450000  24.3410000  87.2980816 159.7844310  25.0604095
  88.6886702 159.7068094  23.9525408  88.5110000 161.5610000  25.0290000
  88.8834250 162.2232671  24.2474613  87.7146136 162.0615926  25.5797067
  89.6370000 161.2160000  25.9750000  89.3026468 160.4337244  26.6564337
  90.4887293 160.8552100  25.3983830  90.0460000 162.4320000  26.7680000
  90.5599180 163.1178183  26.0944704  89.1419726 162.9070135  27.1490456
  90.9450000 162.0880000  27.9080000  91.7829448 161.6482193  27.5550961
  91.1917573 162.9300804  28.4081114  90.4688262 161.4528481  28.5324515
  87.8320000 161.2550000  22.0230000  88.5970000 160.4840000  21.4060000
  87.6750000 162.5350000  21.7130000  86.9532926 163.0986477  22.1390741
  88.4680000 163.1210000  20.6590000  88.9598859 162.3289292  20.0944016
  87.6140000 163.9310000  19.7110000  86.9807245 164.6260330  20.2623534
  88.2480633 164.4873468  19.0206798  86.6980000 163.0900000  18.8700000
  87.1270000 162.5760000  17.6490000  88.1450625 162.7738824  17.3136030
  86.2650000 161.8120000  16.8550000  86.6011982 161.4388601  15.8876127
  84.9890000 161.5310000  17.2970000  84.3249786 160.9234862  16.6820996
  84.5520000 162.0160000  18.5130000  83.5448443 161.7894645  18.8628845
  85.4050000 162.8000000  19.2970000  85.0596253 163.1912983  20.2539231
  89.5840000 163.9190000  21.2730000  89.3630000 164.7000000  22.2020000
  90.7920000 163.6550000  20.8060000  90.8766267 162.9619584  20.0761842
  92.0070000 164.2600000  21.3260000  91.7952783 165.0806426  22.0114333
  92.8270000 163.1920000  22.0750000  93.8296910 163.5887252  22.2341232
  92.2090000 162.8170000  23.4200000  91.2064026 162.4197356  23.2616363
  92.8261350 162.0612777  23.9059293  92.1526789 163.7019168  24.0539170
  92.9490000 162.0130000  21.2600000  93.4603672 161.3504510  21.7302476
  92.7750000 164.8730000  20.1760000  93.0020000 164.1930000  19.1750000
  93.1680000 166.1550000  20.3070000  92.8888043 166.6454853  21.1445997
  93.9000000 166.8970000  19.2800000  93.2888815 166.8810372  18.3775708
  94.0880000 168.3370000  19.7120000  94.7056566 168.3699400  20.6095050
  94.5774883 168.8953189  18.9140141  93.1162987 168.7831768  19.9237125
  95.2460000 166.2700000  18.9330000  95.9390000 165.7630000  19.8170000
  95.6070000 166.3000000  17.6360000  94.9166545 166.6115866  16.9678411
  96.8710000 165.7520000  17.1270000  97.3190995 165.0492672  17.8294761
  96.6740000 165.0420000  15.7820000  97.6565533 164.8791533  15.3390890
  95.9560000 163.7040000  15.9320000  94.9731164 163.8661015  16.3744506
  95.8408294 163.2409958  14.9519684  96.5404223 163.0477452  16.5768881
  95.9530000 165.9000000  14.8920000  95.8293097 165.4561647  14.0497938
  97.9810000 166.8120000  17.1000000  99.1440000 166.4680000  16.8950000
  97.6240000 168.0830000  17.3350000  96.6382772 168.2856405  17.4209457
  98.5670000 169.1950000  17.3980000  99.5816501 168.8033493  17.4700701
  98.4720000 170.0840000  16.1510000  97.4309538 170.3924135  16.0550672
  99.0946204 170.9599789  16.3329474  98.9220000 169.3980000  14.8580000
  99.9568838 169.6806846  14.6651123  98.8619887 168.3197742  15.0060874
  98.0480000 169.8000000  13.6560000  97.8629120 170.8716334  13.7297783
  98.6196642 169.5919710  12.7515535  96.7200000 169.0590000  13.5980000
  96.9254744 168.0229425  13.3288056  96.2727592 169.0938942  14.5914069
  95.7760000 169.6520000  12.6070000  96.1900570 169.6193714  11.6863525
  94.9136359 169.1262357  12.6071521  95.5851371 170.6119060  12.8565011
  98.3330000 170.0120000  18.6730000  97.1920000 170.3270000  19.0320000
  95.9120000 173.3160000  19.0260000  96.2635361 174.2178697  19.3143622
  94.4770000 173.1780000  18.7780000  94.1525690 173.9325796  18.0614434
  94.1620000 171.8000000  18.2100000  94.4260233 171.0700070  18.9751805
  93.0873888 171.7652639  18.0308235  94.8930000 171.4770000  16.9360000
  94.7292892 172.2775763  16.2146283  95.9591322 171.3897136  17.1453928
  94.2970000 169.9260000  16.2440000  92.6190000 170.4490000  15.7210000
  92.6997741 171.2588283  14.9959119  92.1001297 169.6051895  15.2661834
  92.0582710 170.7942971  16.5895932  93.6180000 173.3960000  20.0000000
  93.9490000 172.9120000  21.0800000  89.3720000 172.9740000  21.0660000
  88.0330000 172.5430000  20.6170000  88.1196745 172.0909265  19.6289629
  87.3809134 173.4146490  20.5612313  87.5880000 171.5600000  21.6650000
  87.7410130 170.5473702  21.2918151  86.5289910 171.7142730  21.8718845
  88.4060000 171.8210000  22.8720000  88.5635530 170.9124172  23.4531656
  87.9399042 172.5784916  23.5021276  89.7460000 172.3370000  22.3390000
  90.1145231 173.1219718  22.9993849  90.8090000 171.2560000  22.1940000
  90.9310000 170.6340000  21.1510000  91.5960000 171.0450000  23.2300000
  91.5793210 171.6617617  24.0296413  92.6410000 170.0310000  23.1610000
  93.0915634 170.0179813  22.1685675  93.7420000 170.3560000  24.2000000
  93.8473662 171.4408406  24.1891324  93.3415833 170.0400008  25.1632814
  95.1230000 169.7030000  23.9780000  95.7948328 170.1525739  24.7091804
  95.0055250 168.6418227  24.1975550  95.7380000 169.8470000  22.6040000
  95.5150000 170.8180000  21.8640000  96.5370000 168.8570000  22.2310000
  96.9829257 168.8859785  21.3252340  96.6960954 168.0783740  22.8543229
  92.0380000 168.5740000  23.2510000  92.6080000 167.6140000  22.7180000
  90.8440000 168.4560000  23.8590000  90.5196913 169.2962723  24.3160182
  90.0320000 167.2380000  23.9830000  90.1326014 166.6615639  23.0633806
  90.4530000 166.3400000  25.1810000  89.9236746 165.3939000  25.0678248
  91.5253802 166.1693582  25.0862256  90.1490000 166.9350000  26.5680000
  90.7905044 167.8093346  26.6780542  89.1058439 167.2505133  26.5485392
  90.3730000 165.9860000  27.7490000  89.6994899 166.3125570  28.5413659
  90.0788229 164.9930140  27.4090911  91.7940000 165.9380000  28.2810000
  92.4404006 165.5541693  27.4917340  92.0966905 166.9535883  28.5360647
  91.9110000 165.0660000  29.4880000  91.6309761 164.1247905  29.2517565
  92.8687034 165.0618518  29.8087599  91.3124315 165.4217387  30.2196180
  88.5450000 167.6240000  24.0900000  88.2030000 168.7330000  24.5380000
  87.6730000 166.7080000  23.6500000  88.0715203 165.9304752  23.1433087
  86.2190000 166.7930000  23.7560000  85.9621972 167.1522862  24.7525264
  85.6000000 167.7460000  22.7140000  84.5400729 167.8624668  22.9400293
  86.0918415 168.7170873  22.7704045  85.6880000 167.3010000  21.2770000
  86.7940000 167.6220000  20.4990000  87.6105877 168.1923419  20.9417127
  86.8660000 167.2210000  19.1610000  87.7319510 167.4937350  18.5578042
  85.8440000 166.4820000  18.6050000  85.9117315 166.1527460  17.5681277
  84.7390000 166.1600000  19.3580000  83.9269065 165.5840644  18.9142630
  84.6570000 166.5710000  20.6920000  83.7784609 166.3203140  21.2864959
  85.6860000 165.3720000  23.6560000  86.4780000 164.4340000  23.4750000
  84.3620000 165.2020000  23.7550000  83.7654538 166.0032751  23.9039635
  83.7440000 163.8830000  23.6880000  84.4915616 163.1443395  23.3988089
  83.1580000 163.4810000  25.0460000  82.3863816 164.1752779  25.3786897
  82.7264669 162.4866247  24.9315578  84.1540000 163.3890000  26.1510000
  84.6020000 164.4060000  26.9430000  84.2121467 165.4018948  26.7325061
  85.4880000 163.9250000  27.8750000  85.9494534 164.4720570  28.5876633
  85.6250000 162.5710000  27.6960000  86.3980000 161.6360000  28.3940000
  87.0248219 161.9884887  29.2131121  86.3170000 160.3260000  28.0000000
  86.9010063 159.5705133  28.5256200  85.5020000 159.9330000  26.9380000
  85.4426811 158.8868920  26.6376021  84.7450000 160.8560000  26.2340000
  84.1675261 160.5031906  25.3795118  84.7840000 162.2010000  26.6260000
  82.6580000 163.8580000  22.6530000  81.8170000 164.7570000  22.6110000
  82.6690000 162.8120000  21.8480000  83.4019954 162.1250416  21.9524281
  81.6700000 162.6020000  20.8130000  81.1192198 163.5242205  20.6279333
  82.1469705 162.2727873  19.8898437  80.7060000 161.5390000  21.2730000
  80.9780000 160.3540000  21.0890000  79.6050000 161.9400000  21.9200000
  79.4663826 162.9168913  22.1357958  78.6530000 160.9700000  22.4570000
  79.1372456 159.9972165  22.5424261  78.1430000 161.3960000  23.8620000
  77.4649652 162.2233810  23.6526947  77.5741502 160.5487273  24.2449346
  79.1880000 161.8390000  24.9220000  79.7907197 162.6467837  24.5068912
  78.5240000 162.3030000  26.1410000  77.9214149 161.4955608  26.5569712
  79.2742915 162.6085388  26.8702527  77.8810854 163.1509488  25.9048981
  80.1490000 160.7260000  25.2960000  80.6912289 160.3999170  24.4084432
  80.8570068 161.0912750  26.0399098  79.5901156 159.8861062  25.7087052
  77.4980000 160.6790000  21.5000000  76.8820000 161.6140000  21.0050000
  77.1970000 159.3930000  21.2440000  77.8030113 158.6744826  21.6135706
  76.1150000 158.9920000  20.3370000  75.9905324 159.7148956  19.5307563
  76.3880000 157.6190000  19.7240000  75.5494819 157.3639744  19.0759648
  77.6690000 157.5970000  18.9220000  78.5080830 157.8514921  19.5695130
  77.8207824 156.6009975  18.5060189  77.6032235 158.3226251  18.1112952
  76.4520000 156.6360000  20.7560000  76.6235532 155.7750028  20.3676011
  74.7750000 159.0830000  21.0510000  74.5980000 158.4480000  22.1010000
  73.8270000 159.8680000  20.4850000  74.0618845 160.4047062  19.6622758
  72.5280000 160.1080000  21.1250000  72.7060387 160.4349331  22.1494590
  71.6830000 161.1710000  20.4110000  70.8294609 161.3774736  21.0567081
  72.3036961 162.0636605  20.3335809  71.1940000 160.7810000  19.0440000
  71.9671780 161.0319107  18.3178179  71.0227599 159.7045775  19.0343355
  69.9110000 161.4990000  18.6830000  69.9935737 162.5410214  18.9919855
  69.7742839 161.4506535  17.6026895  68.7420000 160.9110000  19.3290000
  68.4067721 161.3547706  20.1720832  68.0840000 159.8540000  18.8640000
  68.5040000 159.2280000  17.7700000  69.3285249 159.5573180  17.2885351
  67.9968318 158.4256701  17.4248235  67.0180000 159.3980000  19.5040000
  66.7052467 159.8560367  20.3480899  66.5226986 158.5943029  19.1450485
  71.6900000 158.8450000  21.3880000  70.8220000 158.8780000  22.2680000
  71.9600000 157.7410000  20.6950000  72.6330879 157.7446577  19.9419803
  71.2240000 156.5090000  20.9590000  70.1634365 156.7342069  21.0711874
  71.3930000 155.5160000  19.8130000  70.8509881 154.6099843  20.0840311
  70.9381224 155.9596844  18.9273756  72.7480000 155.1920000  19.5370000
  72.7856837 154.5663932  18.8098164  71.6580000 155.8820000  22.2860000
  70.9100000 155.0870000  22.8420000  72.8540000 156.2530000  22.8000000
  73.3781541 156.9548533  22.2972438  73.4440000 155.6830000  24.0180000
  73.1048697 154.6548618  24.1445766  74.9550000 155.6820000  23.8840000
  75.3104616 156.7055931  23.7656606  75.3992844 155.2447344  24.7781535
  75.2425373 155.0949540  23.0117623  73.0540000 156.4480000  25.2400000
  73.3210000 156.0220000  26.3660000  72.4450000 157.6090000  24.9990000
  72.3105624 157.8199721  24.0204722  72.0590000 158.6090000  25.9780000
  72.5256520 158.3992246  26.9404601  72.5240000 159.9930000  25.4980000
  72.1745449 160.0296286  24.4661867  72.0257607 160.7701197  26.0776056
  74.0220000 160.2200000  25.5320000  74.5206240 159.3379633  25.1301464
  74.3940000 161.4100000  24.7240000  73.8960891 162.2925717  25.1255605
  75.4738309 161.5532928  24.7631549  74.0853863 161.2584256  23.6896484
  74.5260000 160.3450000  26.9440000  74.3024891 159.4299416  27.4924620
  75.6038219 160.5070846  26.9326071  74.0373634 161.1886666  27.4314012
  70.5880000 158.6180000  26.3050000  69.7570000 158.2130000  25.4910000
  70.1962182 158.9964100  27.4067043  83.8000000 151.9290000  15.3980000
  83.7840000 150.5330000  14.8510000  82.5730000 152.7050000  15.0590000
  82.4780000 149.8010000  15.2640000  81.2820000 151.9210000  15.4060000
  81.3110000 150.5790000  14.8040000  82.4280000 149.6610000  16.7680000
  81.0500000 151.7790000  16.9220000  80.1310000 150.0340000  14.3290000
  83.1090000 148.6650000  17.4490000  81.8160000 150.6350000  17.5480000
  79.0950000 150.6910000  14.2390000  80.1600000 148.5920000  13.8940000
  83.1410000 148.6260000  18.7890000  81.8360000 150.6000000  18.8940000
  82.5180000 149.5990000  19.4810000  85.2790000 152.7560000  15.3580000
  86.2170000 151.9680000  14.5880000  85.5880000 153.1790000  16.7080000
  84.9190000 154.2070000  14.4260000  84.5790000 154.0890000  13.0910000
  85.0340000 155.4770000  14.9880000  84.2880000 155.1550000  12.3060000
  84.7560000 156.5870000  14.1960000  84.3860000 156.3780000  12.8750000
  82.5750000 149.5570000  20.9880000  81.8160000 148.4930000  21.7490000
  83.3120000 148.4370000  21.6860000  83.7510000 147.6540000  16.7060000
  85.1980000 147.8040000  16.5550000  85.8780000 147.5470000  17.8680000
  87.3740000 147.3610000  17.9390000  86.4610000 146.1930000  18.1900000
  83.8450000 150.5730000  13.7540000  84.6440000 149.9820000  15.2590000
  82.5800000 153.6470000  15.6270000  82.5770000 152.8950000  13.9760000
  82.4580000 148.8020000  14.8030000  80.4520000 152.5110000  14.9900000
  81.3610000 152.7140000  17.4110000  79.9800000 151.5660000  17.0660000
  80.1730000 147.9410000  14.7810000  79.2660000 148.3730000  13.2920000
  81.0620000 148.4090000  13.2920000  84.5420000 153.0840000  12.6450000
  85.3380000 155.6000000  16.0380000  84.8280000 157.6050000  14.6060000
  84.1600000 157.2570000  12.2550000  82.6150000 150.6560000  21.0140000
  81.3150000 148.7460000  22.6950000  81.0020000 147.7940000  21.5040000
  83.8080000 147.6530000  21.0940000  84.1190000 148.3850000  22.4320000
  83.2350000 146.8630000  16.2950000  85.5630000 147.0830000  15.8090000
  85.4240000 148.8280000  16.2250000  85.1510000 148.2160000  18.3520000
  87.9770000 147.4000000  17.0190000  88.1920000 147.8430000  18.4950000
  86.3640000 145.7800000  19.2050000  86.3580000 145.1830000  17.7690000
