%VERSION  VERSION_STAMP = V0001.000  DATE = 09/03/26  21:55:39
%FLAG TITLE
%FORMAT(20a4)
default_name
%FLAG POINTERS
%FORMAT(10I8)
      61      27      28      38      68      58     125      94       0       0
     351       1      38      58      94      25      53      31      49       0
       0       0       0       0       0       0       0       0      61       0
       0
%FLAG ATOM_NAME
%FORMAT(20a4)
N1  C1  C2  C3  C4  N2  C5  C6  C7  C8  C9  O1  C10 N3  N4  C11 S1  O2  O3  C12 
C13 C14 N5  C15 C16 C17 C18 C19 N6  C20 C21 C22 C23 H1  H2  H3  H4  H5  H6  H7  
H8  H9  H10 H11 H12 H13 H14 H15 H16 H17 H18 H19 H20 H21 H22 H23 H24 H25 H26 H27 
H28 
%FLAG CHARGE
%FORMAT(5E16.8)
 -1.48238411E+01  3.96881694E+00  3.98703924E+00  2.89734570E+00  1.52520651E+00
 -8.43328044E+00 -6.12087057E+00 -2.98299051E+00  1.21196517E+01  1.13925820E+01
  8.57541438E+00 -1.09534245E+01 -3.09961323E+00 -1.35209466E+01 -1.27738323E+01
  1.29068551E+01  2.75922067E+01 -1.18590728E+01 -1.18590728E+01 -9.07106094E+00
  9.24235056E+00  3.82668300E-01 -1.23911640E+01 -4.96193229E+00  8.31301326E+00
 -3.29823630E+00 -2.01174192E+00 -2.01174192E+00 -1.48129077E+01  3.20348034E+00
 -2.87365671E+00 -2.35796562E+00 -2.35796562E+00  1.20631626E+00  1.20631626E+00
  1.10609361E+00  1.10609361E+00  1.76209641E+00  1.87143021E+00  1.57987341E+00
  1.57987341E+00  1.26402628E+00  1.26402628E+00  1.26402628E+00  7.48936530E-01
  2.93379030E+00  2.82445650E+00  5.48491230E-01  1.96254171E+00  1.43409501E+00
  1.43409501E+00  1.43409501E+00  1.43409501E+00  6.97549644E+00  1.27920546E+00
  1.27920546E+00  1.79854101E+00  1.28831661E+00  1.28831661E+00  1.28831661E+00
  1.28831661E+00
%FLAG ATOMIC_NUMBER
%FORMAT(10I8)
       7       6       6       6       6       7       6       6       6       6
       6       8       6       7       7       6      16       8       8       6
       6       6       7       6       6       6       6       6       7       6
       6       6       6       1       1       1       1       1       1       1
       1       1       1       1       1       1       1       1       1       1
       1       1       1       1       1       1       1       1       1       1
       1
%FLAG MASS
%FORMAT(5E16.8)
  1.40100000E+01  1.20100000E+01  1.20100000E+01  1.20100000E+01  1.20100000E+01
  1.40100000E+01  1.20100000E+01  1.20100000E+01  1.20100000E+01  1.20100000E+01
  1.20100000E+01  1.60000000E+01  1.20100000E+01  1.40100000E+01  1.40100000E+01
  1.20100000E+01  3.20600000E+01  1.60000000E+01  1.60000000E+01  1.20100000E+01
  1.20100000E+01  1.20100000E+01  1.40100000E+01  1.20100000E+01  1.20100000E+01
  1.20100000E+01  1.20100000E+01  1.20100000E+01  1.40100000E+01  1.20100000E+01
  1.20100000E+01  1.20100000E+01  1.20100000E+01  1.00800000E+00  1.00800000E+00
  1.00800000E+00  1.00800000E+00  1.00800000E+00  1.00800000E+00  1.00800000E+00
  1.00800000E+00  1.00800000E+00  1.00800000E+00  1.00800000E+00  1.00800000E+00
  1.00800000E+00  1.00800000E+00  1.00800000E+00  1.00800000E+00  1.00800000E+00
  1.00800000E+00  1.00800000E+00  1.00800000E+00  1.00800000E+00  1.00800000E+00
  1.00800000E+00  1.00800000E+00  1.00800000E+00  1.00800000E+00  1.00800000E+00
  1.00800000E+00
%FLAG ATOM_TYPE_INDEX
%FORMAT(10I8)
      15      16      16      16      16      17      18      16      18      18
      18      19      16      20      20      18      21      19      19      18
      18      18      20      18      18      16      16      16      22      16
      16      16      16      23      23      23      23      23      23      24
      24      24      24      24      25      26      26      25      24      24
      24      24      24      27      23      23      24      24      24      24
      24
%FLAG NUMBER_EXCLUDED_ATOMS
%FORMAT(10I8)
      19      17      17      17      15      18      15      10       7      12
       9       4       3       9       7       9      13       4       3       8
       7       7       5       4       4       7       6       5       8      11
      10       8       7       2       1       2       1       1       2       1
       1       2       1       1       1       1       1       1       4       3
       2       1       1       2       2       1       4       3       2       1
       1
%FLAG NONBONDED_PARM_INDEX
%FORMAT(10I8)
       1       2       4       7      11      16      22      29      37      46
      56      67      79      92     106     121     137     154     172     191
     211     232     254     277     301     326     352       2       3       5
       8      12      17      23      30      38      47      57      68      80
      93     107     122     138     155     173     192     212     233     255
     278     302     327     353       4       5       6       9      13      18
      24      31      39      48      58      69      81      94     108     123
     139     156     174     193     213     234     256     279     303     328
     354       7       8       9      10      14      19      25      32      40
      49      59      70      82      95     109     124     140     157     175
     194     214     235     257     280     304     329     355      11      12
      13      14      15      20      26      33      41      50      60      71
      83      96     110     125     141     158     176     195     215     236
     258     281     305     330     356      16      17      18      19      20
      21      27      34      42      51      61      72      84      97     111
     126     142     159     177     196     216     237     259     282     306
     331     357      22      23      24      25      26      27      28      35
      43      52      62      73      85      98     112     127     143     160
     178     197     217     238     260     283     307     332     358      29
      30      31      32      33      34      35      36      44      53      63
      74      86      99     113     128     144     161     179     198     218
     239     261     284     308     333     359      37      38      39      40
      41      42      43      44      45      54      64      75      87     100
     114     129     145     162     180     199     219     240     262     285
     309     334     360      46      47      48      49      50      51      52
      53      54      55      65      76      88     101     115     130     146
     163     181     200     220     241     263     286     310     335     361
      56      57      58      59      60      61      62      63      64      65
      66      77      89     102     116     131     147     164     182     201
     221     242     264     287     311     336     362      67      68      69
      70      71      72      73      74      75      76      77      78      90
     103     117     132     148     165     183     202     222     243     265
     288     312     337     363      79      80      81      82      83      84
      85      86      87      88      89      90      91     104     118     133
     149     166     184     203     223     244     266     289     313     338
     364      92      93      94      95      96      97      98      99     100
     101     102     103     104     105     119     134     150     167     185
     204     224     245     267     290     314     339     365     106     107
     108     109     110     111     112     113     114     115     116     117
     118     119     120     135     151     168     186     205     225     246
     268     291     315     340     366     121     122     123     124     125
     126     127     128     129     130     131     132     133     134     135
     136     152     169     187     206     226     247     269     292     316
     341     367     137     138     139     140     141     142     143     144
     145     146     147     148     149     150     151     152     153     170
     188     207     227     248     270     293     317     342     368     154
     155     156     157     158     159     160     161     162     163     164
     165     166     167     168     169     170     171     189     208     228
     249     271     294     318     343     369     172     173     174     175
     176     177     178     179     180     181     182     183     184     185
     186     187     188     189     190     209     229     250     272     295
     319     344     370     191     192     193     194     195     196     197
     198     199     200     201     202     203     204     205     206     207
     208     209     210     230     251     273     296     320     345     371
     211     212     213     214     215     216     217     218     219     220
     221     222     223     224     225     226     227     228     229     230
     231     252     274     297     321     346     372     232     233     234
     235     236     237     238     239     240     241     242     243     244
     245     246     247     248     249     250     251     252     253     275
     298     322     347     373     254     255     256     257     258     259
     260     261     262     263     264     265     266     267     268     269
     270     271     272     273     274     275     276     299     323     348
     374     277     278     279     280     281     282     283     284     285
     286     287     288     289     290     291     292     293     294     295
     296     297     298     299     300     324     349     375     301     302
     303     304     305     306     307     308     309     310     311     312
     313     314     315     316     317     318     319     320     321     322
     323     324     325     350     376     326     327     328     329     330
     331     332     333     334     335     336     337     338     339     340
     341     342     343     344     345     346     347     348     349     350
     351     377     352     353     354     355     356     357     358     359
     360     361     362     363     364     365     366     367     368     369
     370     371     372     373     374     375     376     377     378
%FLAG RESIDUE_LABEL
%FORMAT(20a4)
LIG 
%FLAG RESIDUE_POINTER
%FORMAT(10I8)
       1
%FLAG BOND_FORCE_CONSTANT
%FORMAT(5E16.8)
  3.59910000E+02  2.48860000E+02  2.41880000E+02  3.44220000E+02  2.58820000E+02
  4.72490000E+02  3.56820000E+02  3.54250000E+02  3.60690000E+02  3.86490000E+02
  6.14680000E+02  2.09820000E+02  2.58910000E+02  3.45250000E+02  3.19920000E+02
  5.90600000E+02  2.34850000E+02  2.39730000E+02  3.42750000E+02  3.17460000E+02
  2.26810000E+02  2.52360000E+02  3.42020000E+02  2.89850000E+02  2.53330000E+02
%FLAG BOND_EQUIL_VALUE
%FORMAT(5E16.8)
  1.08650000E+00  1.50820000E+00  1.51740000E+00  1.09690000E+00  1.45900000E+00
  1.01370000E+00  1.08850000E+00  1.39860000E+00  1.08600000E+00  1.33920000E+00
  1.46560000E+00  1.79130000E+00  1.49550000E+00  1.09620000E+00  1.39440000E+00
  1.21900000E+00  1.52700000E+00  1.52030000E+00  1.09790000E+00  1.39670000E+00
  1.53840000E+00  1.46690000E+00  1.09840000E+00  1.70510000E+00  1.46570000E+00
%FLAG ANGLE_FORCE_CONSTANT
%FORMAT(5E16.8)
  3.50500000E+01  3.56400000E+01  3.58000000E+01  3.59300000E+01  3.57700000E+01
  4.24900000E+01  8.35100000E+01  4.37400000E+01  5.50000000E+01  5.86900000E+01
  4.29900000E+01  6.58900000E+01  4.80400000E+01  4.49000000E+01  4.48000000E+01
  5.01000000E+01  6.81700000E+01  6.36700000E+01  8.31500000E+01  1.20430000E+02
  1.57750000E+02  6.30800000E+01  5.88500000E+01  4.35500000E+01  6.71700000E+01
  7.42500000E+01  7.27600000E+01  7.64500000E+01  4.36900000E+01  7.59000000E+01
  5.74600000E+01  4.36300000E+01  4.32800000E+01  6.68100000E+01  4.38000000E+01
  6.74900000E+01  6.06600000E+01  6.55100000E+01  4.80600000E+01  8.66800000E+01
  6.51900000E+01  6.52900000E+01  6.02800000E+01  4.32300000E+01  7.66300000E+01
  7.69600000E+01  8.13900000E+01  6.01800000E+01  7.81900000E+01  1.33060000E+02
  1.02070000E+02  6.54200000E+01  4.78500000E+01
%FLAG ANGLE_EQUIL_VALUE
%FORMAT(5E16.8)
  1.99718112E+00  1.89455572E+00  1.88024401E+00  1.86087085E+00  1.87622975E+00
  2.05407888E+00  1.04719800E+00  1.91323075E+00  2.01254002E+00  2.10766051E+00
  1.98478928E+00  1.94412309E+00  1.91392888E+00  2.09230160E+00  2.09998106E+00
  2.02493187E+00  2.14570870E+00  2.09474507E+00  2.04622489E+00  1.89089052E+00
  2.11848155E+00  2.08409855E+00  2.12651007E+00  1.98478928E+00  2.04029077E+00
  2.04500316E+00  2.22180509E+00  2.14501057E+00  1.91061275E+00  2.15949681E+00
  2.00241711E+00  1.90153704E+00  1.90555129E+00  2.01917228E+00  1.90118797E+00
  2.10731144E+00  2.10486798E+00  1.95284974E+00  1.89403212E+00  2.13925098E+00
  2.04482863E+00  1.94028336E+00  1.95424600E+00  1.91026369E+00  2.10259905E+00
  1.99089793E+00  2.00974750E+00  1.93836350E+00  1.93208031E+00  1.87361175E+00
  1.78669432E+00  1.93452377E+00  1.91340528E+00
%FLAG DIHEDRAL_FORCE_CONSTANT
%FORMAT(5E16.8)
  0.00000000E+00  1.55555556E-01  2.50000000E+00  0.00000000E+00  4.20000000E-01
  3.62500000E+00  1.20000000E-01  1.30000000E-01  6.70000000E-01  4.80000000E+00
  1.30000000E+00  3.00000000E-01  1.05000000E+00  4.03000000E+00  3.66000000E+00
  0.00000000E+00  1.02000000E+00  1.70000000E-01  1.00000000E-01  3.30000000E-01
  2.10000000E-01  2.40000000E-01  2.93000000E+00  1.41000000E+00  5.00000000E-01
  3.13333333E+00  7.30000000E-01  2.25000000E-01  1.00000000E-01  1.10000000E+00
  1.05000000E+01
%FLAG DIHEDRAL_PERIODICITY
%FORMAT(5E16.8)
  2.00000000E+00  3.00000000E+00  2.00000000E+00  1.00000000E+00  3.00000000E+00
  2.00000000E+00  3.00000000E+00  3.00000000E+00  1.00000000E+00  2.00000000E+00
  2.00000000E+00  3.00000000E+00  2.00000000E+00  1.00000000E+00  2.00000000E+00
  2.00000000E+00  1.00000000E+00  3.00000000E+00  4.00000000E+00  2.00000000E+00
  3.00000000E+00  2.00000000E+00  1.00000000E+00  2.00000000E+00  3.00000000E+00
  2.00000000E+00  3.00000000E+00  3.00000000E+00  3.00000000E+00  2.00000000E+00
  2.00000000E+00
%FLAG DIHEDRAL_PHASE
%FORMAT(5E16.8)
  0.00000000E+00  0.00000000E+00  3.14159400E+00  0.00000000E+00  0.00000000E+00
  3.14159400E+00  0.00000000E+00  0.00000000E+00  0.00000000E+00  3.14159400E+00
  3.14159400E+00  0.00000000E+00  3.14159400E+00  0.00000000E+00  3.14159400E+00
  3.14159400E+00  3.14159400E+00  0.00000000E+00  3.14159400E+00  3.14159400E+00
  0.00000000E+00  3.14159400E+00  0.00000000E+00  3.14159400E+00  0.00000000E+00
  0.00000000E+00  0.00000000E+00  0.00000000E+00  0.00000000E+00  3.14159400E+00
  3.14159400E+00
%FLAG SCEE_SCALE_FACTOR
%FORMAT(5E16.8)
  1.20000000E+00  1.20000000E+00  1.20000000E+00  1.20000000E+00  1.20000000E+00
  1.20000000E+00  1.20000000E+00  1.20000000E+00  1.20000000E+00  1.20000000E+00
  1.20000000E+00  1.20000000E+00  1.20000000E+00  1.20000000E+00  1.20000000E+00
  1.20000000E+00  1.20000000E+00  1.20000000E+00  1.20000000E+00  1.20000000E+00
  1.20000000E+00  1.20000000E+00  1.20000000E+00  1.20000000E+00  1.20000000E+00
  1.20000000E+00  1.20000000E+00  1.20000000E+00  1.20000000E+00  0.00000000E+00
  0.00000000E+00
%FLAG SCNB_SCALE_FACTOR
%FORMAT(5E16.8)
  2.00000000E+00  2.00000000E+00  2.00000000E+00  2.00000000E+00  2.00000000E+00
  2.00000000E+00  2.00000000E+00  2.00000000E+00  2.00000000E+00  2.00000000E+00
  2.00000000E+00  2.00000000E+00  2.00000000E+00  2.00000000E+00  2.00000000E+00
  2.00000000E+00  2.00000000E+00  2.00000000E+00  2.00000000E+00  2.00000000E+00
  2.00000000E+00  2.00000000E+00  2.00000000E+00  2.00000000E+00  2.00000000E+00
  2.00000000E+00  2.00000000E+00  2.00000000E+00  2.00000000E+00  0.00000000E+00
  0.00000000E+00
%FLAG SOLTY
%FORMAT(5E16.8)
  0.00000000E+00  0.00000000E+00  0.00000000E+00  0.00000000E+00  0.00000000E+00
  0.00000000E+00  0.00000000E+00  0.00000000E+00  0.00000000E+00  0.00000000E+00
  0.00000000E+00  0.00000000E+00  0.00000000E+00  0.00000000E+00  0.00000000E+00
  0.00000000E+00  0.00000000E+00  0.00000000E+00  0.00000000E+00  0.00000000E+00
  0.00000000E+00  0.00000000E+00  0.00000000E+00  0.00000000E+00  0.00000000E+00
  0.00000000E+00  0.00000000E+00  0.00000000E+00  0.00000000E+00  0.00000000E+00
  0.00000000E+00  0.00000000E+00  0.00000000E+00  0.00000000E+00  0.00000000E+00
  0.00000000E+00  0.00000000E+00  0.00000000E+00  0.00000000E+00  0.00000000E+00
  0.00000000E+00  0.00000000E+00  0.00000000E+00  0.00000000E+00  0.00000000E+00
  0.00000000E+00  0.00000000E+00  0.00000000E+00  0.00000000E+00
%FLAG LENNARD_JONES_ACOEF
%FORMAT(5E16.8)
  9.44293233E+05  2.12601181E+03  1.39982777E-01  9.95480466E+05  2.56678134E+03
  1.04308023E+06  2.01791425E+04  9.14716912E+00  2.27401052E+04  2.01823541E+02
  8.96776989E+04  1.07193646E+02  9.71708117E+04  1.41077189E+03  7.51607703E+03
  8.82619071E+05  2.27577561E+03  9.24822270E+05  2.01619733E+04  8.61541883E+04
  8.19971662E+05  7.91627154E+04  8.90987508E+01  8.59947003E+04  1.21014911E+03
  6.55825601E+03  7.62451550E+04  5.71629601E+03  6.06829342E+05  1.02595236E+03
  6.47841731E+05  1.12780457E+04  5.44261042E+04  5.74393458E+05  4.77908183E+04
  3.79876399E+05  6.20665997E+04  5.94667300E+01  6.78771368E+04  8.79040886E+02
  4.98586848E+03  6.01816484E+04  4.33325458E+03  3.69471530E+04  3.25969625E+03
  7.44975864E+05  1.40467023E+03  7.91544157E+05  1.45985502E+04  6.82786631E+04
  7.01803794E+05  6.00750218E+04  4.71003287E+05  4.66922514E+04  5.81803229E+05
  0.00000000E+00  0.00000000E+00  0.00000000E+00  0.00000000E+00  0.00000000E+00
  0.00000000E+00  0.00000000E+00  0.00000000E+00  0.00000000E+00  0.00000000E+00
  0.00000000E+00  5.46147253E+04  4.90239937E+01  5.98885646E+04  7.50063100E+02
  4.33325458E+03  5.30987710E+04  3.76169105E+03  3.23283631E+04  2.82099197E+03
  4.09427581E+04  0.00000000E+00  2.43828624E+03  6.58473870E+04  6.63368273E+01
  7.18621074E+04  9.55000044E+02  5.34045360E+03  6.37148278E+04  4.64559155E+03
  3.93690817E+04  3.50301067E+03  4.96707306E+04  0.00000000E+00  3.03448006E+03
  3.76169105E+03  2.01562190E+06  5.97860700E+03  2.09861767E+06  4.93469320E+04
  2.02461849E+05  1.86068943E+06  1.79647996E+05  1.32911052E+06  1.42791446E+05
  1.61587928E+06  0.00000000E+00  1.26338489E+05  1.50848032E+05  4.19430400E+06
  8.28144322E+05  2.07087856E+03  8.68941273E+05  1.86340379E+04  8.03350760E+04
  7.70426106E+05  7.10545648E+04  5.37402784E+05  5.59994575E+04  6.57317882E+05
  0.00000000E+00  4.93787016E+04  5.93150590E+04  1.75078538E+06  7.23647490E+05
  9.84684600E+05  2.53456440E+03  1.03184851E+06  2.24743442E+04  9.60832554E+04
  9.14863930E+05  8.50294791E+04  6.40712560E+05  6.71095195E+04  7.82881336E+05
  0.00000000E+00  5.92092559E+04  7.10513128E+04  2.07618920E+06  8.59569453E+05
  1.02073671E+06  8.14793385E+05  1.71845864E+03  8.61458248E+05  1.68636880E+04
  7.63694318E+04  7.63791460E+05  6.73331169E+04  5.20462539E+05  5.26221036E+04
  6.40405042E+05  0.00000000E+00  4.62444096E+04  5.58833643E+04  1.74955513E+06
  7.16178718E+05  8.52084164E+05  7.02078680E+05  8.11497350E+05  1.94008400E+03
  8.53193737E+05  1.78601506E+04  7.80065389E+04  7.56463928E+05  6.89371259E+04
  5.24402060E+05  5.42099106E+04  6.42430744E+05  0.00000000E+00  4.77581094E+04
  5.74592031E+04  1.72268611E+06  7.10207765E+05  8.43969952E+05  7.01106848E+05
  6.96551276E+05  5.99897901E+05  1.11043914E+03  6.37913494E+05  1.16505362E+04
  5.47803235E+04  5.65590822E+05  4.81820985E+04  3.78641356E+05  3.74148715E+04
  4.68011805E+05  0.00000000E+00  3.27958584E+04  3.98127143E+04  1.30335373E+06
  5.29641935E+05  6.30925504E+05  5.15491878E+05  5.17507491E+05  3.76435470E+05
  8.97750460E+05  2.28331226E+03  9.41257953E+05  2.03696482E+04  8.73875986E+04
  8.34543970E+05  7.73168790E+04  5.83493927E+05  6.09861363E+04  7.13267446E+05
  0.00000000E+00  5.37939286E+04  6.45801516E+04  1.89497992E+06  7.84008042E+05
  9.31115275E+05  7.76656876E+05  7.69642101E+05  5.74782316E+05  8.49322032E+05
  2.31672966E+06  1.00133688E+04  2.37033661E+06  6.84678827E+04  2.51650907E+05
  2.10160256E+06  2.24899557E+05  1.58377431E+06  1.82177673E+05  1.89947213E+06
  0.00000000E+00  1.62412531E+05  1.91330146E+05  4.65133987E+06  1.98533726E+06
  2.34552991E+06  2.02772676E+06  1.96483601E+06  1.53564503E+06  2.14413784E+06
  4.90327872E+06  9.49688051E+05  2.19650758E+03  9.99965503E+05  2.05642936E+04
  9.06812688E+04  8.86595622E+05  8.00887575E+04  6.11819701E+05  6.28761764E+04
  7.50394818E+05  0.00000000E+00  5.53566071E+04  6.66787728E+04  2.02216260E+06
  8.32102309E+05  9.89136215E+05  8.19918726E+05  8.15700858E+05  6.04358274E+05
  9.01905150E+05  2.31624521E+06  9.54886922E+05  6.43853349E+04  5.78352684E+01
  7.06006146E+04  8.84544347E+02  5.10916075E+03  6.25963552E+04  4.43530964E+03
  3.81142515E+04  3.32626784E+03  4.82692694E+04  0.00000000E+00  2.87505342E+03
  3.57795711E+03  1.48931701E+05  5.82112737E+04  6.97998263E+04  5.45183252E+04
  5.63013422E+04  3.86646725E+04  6.34160397E+04  1.91441225E+05  6.52595638E+04
  3.39005767E+03  9.33217616E+04  1.05103439E+02  1.01372942E+05  1.42703904E+03
  7.73223568E+03  8.98799076E+04  6.73963720E+03  5.63419090E+04  5.10916075E+03
  7.08225575E+04  0.00000000E+00  4.43530964E+03  5.47737117E+03  2.11768029E+05
  8.37616145E+04  1.00235148E+05  7.93773615E+04  8.12662403E+04  5.68021765E+04
  9.11435380E+04  2.65089806E+05  9.44129241E+04  5.22955465E+03  7.94617769E+03
  7.19825646E+04  7.49206038E+01  7.84511674E+04  1.06023582E+03  5.87454193E+03
  6.95568610E+04  5.11317150E+03  4.31596374E+04  3.86158714E+03  5.43945007E+04
  0.00000000E+00  3.34719214E+03  4.14474284E+03  1.64447369E+05  6.47735754E+04
  7.75673747E+04  6.11299385E+04  6.27751680E+04  4.36069364E+04  7.05112106E+04
  2.07781925E+05  7.28718235E+04  3.94664935E+03  6.02863188E+03  4.56536476E+03
  8.64679274E+04  1.00417924E+02  9.38067954E+04  1.34169202E+03  7.20681791E+03
  8.31715633E+04  6.28513799E+03  5.23449021E+04  4.77162373E+03  6.57310418E+04
  0.00000000E+00  4.14474284E+03  5.11317150E+03  1.95699890E+05  7.75325560E+04
  9.27554496E+04  7.35931098E+04  7.52549148E+04  5.27277400E+04  8.43518904E+04
  2.44084252E+05  8.74566229E+04  4.88692384E+03  7.41026906E+03  5.62610481E+03
  6.90855956E+03  1.88178855E+03  1.37574453E-01  2.26409483E+03  8.45902425E+00
  9.64710720E+01  2.00740581E+03  8.03166617E+01  9.14858779E+02  5.38411501E+01
  1.24900897E+03  0.00000000E+00  4.44659845E+01  5.99788431E+01  5.25501858E+03
  1.82809059E+03  2.23577481E+03  1.52360475E+03  1.71458823E+03  9.87857350E+02
  2.01475241E+03  8.72013948E+03  1.94284817E+03  5.24570081E+01  9.47421632E+01
  6.76796831E+01  9.04434904E+01  1.34728399E-01
%FLAG LENNARD_JONES_BCOEF
%FORMAT(5E16.8)
  8.01323529E+02  2.09604198E+01  9.37598976E-02  7.36907417E+02  2.06278363E+01
  6.75612247E+02  6.45756063E+01  7.57919667E-01  6.13981767E+01  3.56012899E+00
  1.36131731E+02  2.59456373E+00  1.26919150E+02  9.41257003E+00  2.17257828E+01
  6.53361429E+02  1.82891803E+01  5.99015525E+02  5.44372326E+01  1.12529845E+02
  5.31102864E+02  1.26451907E+02  2.33864085E+00  1.18043746E+02  8.61880722E+00
  2.00642027E+01  1.04660679E+02  1.85196588E+01  6.77220874E+02  1.53505284E+01
  6.26720080E+02  5.08951803E+01  1.11805549E+02  5.55666448E+02  1.03580945E+02
  5.64885984E+02  1.13252061E+02  1.93248820E+00  1.06076943E+02  7.42992380E+00
  1.76949863E+01  9.40505980E+01  1.63092814E+01  9.21192136E+01  1.43076527E+01
  7.50714425E+02  1.79702257E+01  6.93079947E+02  5.79323581E+01  1.25287818E+02
  6.14502845E+02  1.16187983E+02  6.29300710E+02  1.03606917E+02  6.99746810E+02
  0.00000000E+00  0.00000000E+00  0.00000000E+00  0.00000000E+00  0.00000000E+00
  0.00000000E+00  0.00000000E+00  0.00000000E+00  0.00000000E+00  0.00000000E+00
  0.00000000E+00  1.05031585E+02  1.73473071E+00  9.85097219E+01  6.78541827E+00
  1.63092814E+01  8.73413012E+01  1.50233639E+01  8.51921330E+01  1.31591746E+01
  9.59185913E+01  0.00000000E+00  1.20953369E+01  1.15327881E+02  2.01792524E+00
  1.07908863E+02  7.65648470E+00  1.81057616E+01  9.56748258E+01  1.66953734E+01
  9.40124296E+01  1.46638650E+01  1.05648788E+02  0.00000000E+00  1.34932874E+01
  1.50233639E+01  1.28923404E+03  3.87070358E+01  1.17824605E+03  1.11203892E+02
  2.25248294E+02  1.04466382E+03  2.09772716E+02  1.10369829E+03  1.89165096E+02
  1.21753341E+03  0.00000000E+00  1.75916126E+02  1.92224012E+02  2.04800000E+03
  6.32509514E+02  1.74362885E+01  5.80298384E+02  5.23034358E+01  1.08599877E+02
  5.14507756E+02  1.00976572E+02  5.37163627E+02  9.06710490E+01  5.94361918E+02
  0.00000000E+00  8.41771980E+01  9.22586543E+01  1.01275239E+03  4.98353106E+02
  7.30206155E+02  2.04226110E+01  6.69494459E+02  6.08139360E+01  1.25742895E+02
  5.93591333E+02  1.16947855E+02  6.20970728E+02  1.05087646E+02  6.86742760E+02
  0.00000000E+00  9.75893223E+01  1.06903901E+02  1.16762437E+03  5.75038595E+02
  6.63431737E+02  7.37244936E+02  1.86646683E+01  6.78964813E+02  5.84691813E+01
  1.24425821E+02  6.01987997E+02  1.15508247E+02  6.21191325E+02  1.03284425E+02
  6.89389438E+02  0.00000000E+00  9.57256348E+01  1.05230082E+02  1.18966487E+03
  5.82583725E+02  6.72777963E+02  6.77820248E+02  6.48597119E+02  1.74825352E+01
  5.95658566E+02  5.30440533E+01  1.10856114E+02  5.28126496E+02  1.03031170E+02
  5.49675335E+02  9.24130897E+01  6.08686716E+02  0.00000000E+00  8.57562161E+01
  9.40636541E+01  1.04065628E+03  5.11427129E+02  5.90251928E+02  5.97113873E+02
  5.24668528E+02  6.15165511E+02  1.45902714E+01  5.68167388E+02  4.72594809E+01
  1.02477444E+02  5.03752097E+02  9.50181887E+01  5.15240418E+02  8.46911674E+01
  5.73100668E+02  0.00000000E+00  7.83922976E+01  8.63723599E+01  9.98521059E+02
  4.87196412E+02  5.62969425E+02  5.64804067E+02  4.98871431E+02  4.69350655E+02
  6.73934129E+02  1.87363491E+01  6.18067719E+02  5.59621097E+01  1.15911684E+02
  5.47995038E+02  1.07792209E+02  5.72796552E+02  9.68317709E+01  6.33599808E+02
  0.00000000E+00  8.99118321E+01  9.85144068E+01  1.07823819E+03  5.30834917E+02
  6.12468585E+02  6.20851625E+02  5.44830041E+02  5.19385932E+02  5.65406768E+02
  9.73020518E+02  3.52644495E+01  8.81518500E+02  9.22126389E+01  1.76785341E+02
  7.81577405E+02  1.65230114E+02  8.48151744E+02  1.50416187E+02  9.29287264E+02
  0.00000000E+00  1.40412144E+02  1.52400575E+02  1.51825992E+03  7.59208492E+02
  8.73669684E+02  9.01618117E+02  7.82392141E+02  7.63007119E+02  8.07413199E+02
  1.09738109E+03  7.84629864E+02  2.08019182E+01  7.21122350E+02  6.36493433E+01
  1.33658266E+02  6.39365975E+02  1.24185448E+02  6.63939748E+02  1.11296137E+02
  7.35645298E+02  0.00000000E+00  1.03245151E+02  1.13312737E+02  1.26082600E+03
  6.19045117E+02  7.14570130E+02  7.22093348E+02  6.34916791E+02  6.02865504E+02
  6.59538202E+02  9.49940659E+02  7.68192761E+02  1.23751804E+02  2.04464126E+00
  1.16065835E+02  7.99614292E+00  1.92174397E+01  1.02907011E+02  1.77023375E+01
  1.00379343E+02  1.55059847E+01  1.13016701E+02  0.00000000E+00  1.42525182E+01
  1.58996004E+01  2.07264254E+02  9.91793374E+01  1.14981426E+02  1.12788003E+02
  1.01040256E+02  9.23664132E+01  1.05935811E+02  1.65426719E+02  1.21646616E+02
  1.67944276E+01  1.48987394E+02  2.75631727E+00  1.39078880E+02  1.01563736E+01
  2.36414051E+01  1.23310980E+02  2.18216157E+01  1.22044000E+02  1.92174397E+01
  1.36896727E+02  0.00000000E+00  1.77023375E+01  1.96722815E+01  2.47150236E+02
  1.18970742E+02  1.37787728E+02  1.36094315E+02  1.21392023E+02  1.11953944E+02
  1.27000718E+02  1.94663459E+02  1.46316625E+02  2.08590256E+01  2.57122925E+01
  1.22733283E+02  2.18279029E+00  1.14759990E+02  8.21131314E+00  1.93285102E+01
  1.01749214E+02  1.78280753E+01  1.00191339E+02  1.56709129E+01  1.12531834E+02
  0.00000000E+00  1.44244612E+01  1.60512210E+01  2.04284272E+02  9.81312253E+01
  1.13692208E+02  1.12023534E+02  1.00073628E+02  9.20079458E+01  1.04776275E+02
  1.61652505E+02  1.20572538E+02  1.69967767E+01  2.10068861E+01  1.71467049E+01
  1.34516705E+02  2.52706841E+00  1.25489661E+02  9.23714573E+00  2.14083478E+01
  1.11262422E+02  1.97659043E+01  1.10338858E+02  1.74198525E+01  1.23703833E+02
  0.00000000E+00  1.60512210E+01  1.78280753E+01  2.22852114E+02  1.07361937E+02
  1.24325688E+02  1.22913863E+02  1.09570372E+02  1.01173582E+02  1.14599119E+02
  1.75205783E+02  1.32088478E+02  1.89134207E+01  2.32899892E+01  1.90347353E+01
  2.10929191E+01  1.76168249E+01  8.30374121E-02  1.73073921E+01  6.51126010E-01
  2.19888978E+00  1.53451874E+01  1.98360701E+00  1.29497639E+01  1.64271443E+00
  1.51381989E+01  0.00000000E+00  1.47593342E+00  1.71416196E+00  3.24191875E+01
  1.46352678E+01  1.71355763E+01  1.57004457E+01  1.46824710E+01  1.22938581E+01
  1.57231024E+01  2.93990844E+01  1.74775900E+01  1.73959275E+00  2.33785449E+00
  1.85338491E+00  2.14252117E+00  7.34107347E-02
%FLAG BONDS_INC_HYDROGEN
%FORMAT(10I8)
      96     177       1      96     180       1      93     171       1      93
     174       1      90     168       1      87     162       4      87     165
       4      84     159       6      81     153       1      81     156       1
      78     147       1      78     150       1      75     144       1      72
     141       7      69     138       9      63     135       9      60     132
       7      36     123      14      36     126      14      36     129      14
      21     117      19      21     120      19      12     114      23       9
     111      23       6     105      23       6     108      23       3      99
      23       3     102      23
%FLAG BONDS_WITHOUT_HYDROGEN
%FORMAT(10I8)
      93      96       2      90      93       2      90      96       2      87
      90       3      84      87       5      78      81       2      75      78
       2      75      81       2      69      72       8      66      72      10
      63      69       8      60      66      10      57      60       8      57
      63       8      48      51      11      48      54      11      48      57
      12      45      75      13      42      45      10      39      45      10
      30      42      10      27      39      10      27      84      15      24
      33      16      24      36      17      21      30      18      18      27
       8      18      30       8      15      24      20      12      21      21
      12      15      22       9      15      22       9      18      18       6
      12      21       3       9      21       0      48      24       0       3
      25       0       6      25
%FLAG ANGLES_INC_HYDROGEN
%FORMAT(10I8)
     177      96     180       1     171      93     174       1     162      87
     165       2     153      81     156       1     147      78     150       1
     126      36     129       3     123      36     126       3     123      36
     129       3     117      21     120       4     105       6     108       5
      99       3     102       5      96      90     168       6      96      93
     171       6      96      93     174       6      93      90     168       6
      93      96     177       6      93      96     180       6      90      87
     162       8      90      87     165       8      90      93     171       6
      90      93     174       6      90      96     177       6      90      96
     180       6      87      84     159       9      87      90     168      11
      84      87     162      13      84      87     165      13      81      75
     144       6      81      78     147       6      81      78     150       6
      78      75     144       6      78      81     153       6      78      81
     156       6      75      78     147       6      75      78     150       6
      75      81     153       6      75      81     156       6      72      69
     138      14      69      63     135      14      69      72     141      15
      66      60     132      16      66      72     141      16      63      69
     138      14      57      60     132      15      57      63     135      14
      45      75     144      24      30      21     117      29      30      21
     120      29      27      84     159      31      24      36     123      32
      24      36     126      32      24      36     129      32      21      12
     114      33      18       9     111      35      15       9     111      39
      15      12     114      39      12       6     105      33      12       6
     108      33      12      21     117      44      12      21     120      44
       9       3      99      33       9       3     102      33       6      12
     114      33       3       9     111      33       0       3      99      53
       0       3     102      53       0       6     105      53       0       6
     108      53
%FLAG ANGLES_WITHOUT_HYDROGEN
%FORMAT(10I8)
      93      90      96       7      90      93      96       7      90      96
      93       7      87      90      93      10      87      90      96      10
      84      87      90      12      78      75      81       7      75      78
      81       7      75      81      78       7      66      72      69      17
      63      69      72      18      60      57      63      18      60      66
      72      19      57      60      66      17      57      63      69      18
      54      48      57      20      51      48      54      21      51      48
      57      20      48      57      60      22      48      57      63      22
      45      75      78      23      45      75      81      23      42      45
      75      25      39      27      84      26      39      45      75      25
      39      45      42      27      33      24      36      28      30      42
      45      19      27      18      30      18      27      39      45      19
      27      84      87      30      21      30      42      34      18      27
      39      17      18      27      84      36      18      30      42      17
      18      30      21      37      15       9      18      38      15      24
      33      40      15      24      36      41      15      12      21      42
      12      21      30      43      12      15      24      45       9      15
      24      45       9      15      12      46       9      18      27      37
       9      18      30      37       6       0      48      47       6      12
      21      48       6      12      15      42       3       0      48      47
       3       0       6      49       3       9      15      42       3       9
      18      43       0      48      51      50       0      48      54      50
       0      48      57      51       0       3       9      52       0       6
      12      52
%FLAG DIHEDRALS_INC_HYDROGEN
%FORMAT(10I8)
     174      93      96     177       2     174      93      96     180       2
     171      93      96     177       2     171      93      96     180       2
     168      90      93     171       2     168      90      93     174       2
     168      90      96     177       2     168      90      96     180       2
     165      87      90     168       7     162      87      90     168       7
     159      84      87     162       1     159      84      87     165       1
     150      78      81     153       2     150      78      81     156       2
     147      78      81     153       2     147      78      81     156       2
     144      75      78     147       2     144      75      78     150       2
     144      75      81     153       2     144      75      81     156       2
     138      69      72     141       6     135      63      69     138       6
     114      12      21     117       2     114      12      21     120       2
     108       6      12     114       2     105       6      12     114       2
     102       3       9     111       2      99       3       9     111       2
      96      90      87     162       8      96      90      87     165       8
      96      90     -93     171       2      96      90     -93     174       2
      96      93     -90     168       2      93      90      87     162       8
      93      90      87     165       8      93      90     -96     177       2
      93      90     -96     180       2      93      96     -90     168       2
      90      87      84     159       1      90      93     -96     177       2
      90      93     -96     180       2      90      96     -93     171       2
      90      96     -93     174       2      87      90      93     171       2
      87      90      93     174       2      87      90      96     177       2
      87      90      96     180       2      84      87      90     168       2
      81      75     -78     147       2      81      75     -78     150       2
      81      78     -75     144       2      78      75     -81     153       2
      78      75     -81     156       2      78      81     -75     144       2
      75      78     -81     153       2      75      78     -81     156       2
      75      81     -78     147       2      75      81     -78     150       2
      72      66      60     132      10      72      69      63     135       6
      66      72      69     138       6      63      57      60     132       6
      63      69      72     141       6      60      57      63     135       6
      60      66      72     141      10      57      63      69     138       6
      48       0       3      99      12      48       0       3     102      12
      48       0       6     105      12      48       0       6     108      12
      48      57      60     132       6      48      57      63     135       6
      45      75      78     147       2      45      75      78     150       2
      45      75      81     153       2      45      75      81     156       2
      42      30      21     117       1      42      30      21     120       1
      42      45      75     144       1      39      27      84     159      13
      39      45      75     144       1      33      24      36     123      14
      33      24     -36     123      15      33      24      36     126      14
      33      24     -36     126      15      33      24      36     129      14
      33      24     -36     129      15      30      18       9     111       1
      30      21      12     114       2      27      18       9     111       1
      27      84      87     162       5      27      84      87     165       5
      24      15       9     111      16      24      15      12     114      16
      21      12       6     105       2      21      12       6     108       2
      18       9       3      99       2      18       9       3     102       2
      18      27      84     159      13      18      30      21     117       4
      18      30      21     120       4      15       9       3      99       2
      15       9       3     102       2      15      24      36     123      16
      15      24      36     126      16      15      24      36     129      16
      15      12       6     105       2      15      12       6     108       2
      15      12      21     117       2      15      12      21     120       2
      12      15       9     111       1       9      15      12     114       1
       6       0       3      99      28       6       0       3     102      28
       6      12      21     117       8       6      12      21     120       8
       3       0       6     105      28       3       0       6     108      28
       0       3       9     111       2       0       6      12     114       2
      87      27     -84    -159      30      69     141     -72     -66      31
      63      72     -69    -138      30      57      69     -63    -135      30
      57     132     -60     -66      31
%FLAG DIHEDRALS_WITHOUT_HYDROGEN
%FORMAT(10I8)
      87      90     -93      96       2      87      90     -96      93       2
      84      87      90      93       9      84      87      90      96       9
      63      57      60      66       6      63      69     -72      66       6
      60      57      63      69       6      60      66     -72      69      10
      57      60      66      72      10      57      63     -69      72       6
      54      48      57      60      11      54      48      57      63      11
      51      48      57      60      11      51      48      57      63      11
      48      57      60      66       6      48      57      63      69       6
      45      39      27      84      10      45      75     -78      81       2
      45      75     -81      78       2      42      45      75      78       1
      42      45      75      81       1      39      27      84      87      13
      39      45      75      78       1      39      45      75      81       1
      30      18      27      39       6      30      18      27      84       6
      30      42     -45      39      10      30      42      45      75      10
      27      18      30      42       6      27      39      45      75      10
      27      39     -45      42      10      27      84      87      90       1
      21      12      15      24      17      21      12     -15      24      18
      21      12     -15      24      19      21      30      18      27       6
      21      30      42      45      10      18       9      15      24       1
      18      27      39      45      10      18      27      84      87      20
      18      30     -42      45      10      15       9      18      27       1
      15       9      18      30       1      15      12     -21      30      21
      48       0       6      12      12      12      21      30      18      22
      12      21      30      42       1      12      15      -9      18       1
      12      15      24      33       3      12      15      24      36      23
      12      15     -24      36      24      12      15     -24      36      25
      48       0       3       9      12       9      15      24      33       3
       9      15      24      36      23       9      15     -24      36      24
       9      15     -24      36      25       9      15      12      21       1
       9      18      27      39       6       9      18      27      84       6
       9      18      30      42       6       9      18     -30      21       6
       6       0      48      51      26       6       0      48      54      26
       6       0      48      57      26       6       0       3       9      27
       6      12      21      30       2       6      12     -15       9       1
       6      12      15      24      17       6      12     -15      24      18
       6      12     -15      24      19       3       0      48      51      26
       3       0      48      54      26       3       0      48      57      26
       3       0       6      12      27       3       9      15      24      17
       3       9     -15      24      18       3       9     -15      24      19
       3       9     -15      12       1       3       9      18      27      22
       3       9      18      30      22       0      48      57      60      11
       0      48      57      63      11       0       3       9      15       2
       0       3       9      18      29       0       6      12      21      21
       0       6     -12      15       2      60      63     -57     -48      31
      75      39     -45     -42      31      21      18     -30     -42      31
      18      39     -27     -84      31      36      15     -24     -33      31
       9      27     -18     -30      30      24       9     -15     -12      30
%FLAG EXCLUDED_ATOMS_LIST
%FORMAT(10I8)
       2       3       4       5       6       7       8      17      18      19
      20      21      22      34      35      36      37      38      39       3
       4       5       6       7       9      10      11      17      18      19
      20      34      35      36      37      38       4       5       6       8
       9      11      17      18      19      20      34      35      36      37
      39      40      41       5       6       7       8       9      10      11
      12      13      14      15      17      29      34      35      38      39
       6       7       8       9      11      12      13      15      17      36
      37      38      39      40      41       7       8       9      10      11
      12      13      34      35      36      37      38      39      40      41
      42      43      44       8       9      10      11      14      15      16
      29      30      34      35      38      40      41      54       9      10
      11      15      16      36      37      39      40      41      12      13
      38      39      42      43      44      11      14      15      16      26
      29      30      31      38      54      55      56      14      15      16
      26      29      38      39      40      41      13      42      43      44
      42      43      44      15      16      26      27      28      29      30
      49      54      16      26      27      28      40      41      49      26
      27      28      29      49      50      51      52      53      18      19
      20      21      22      23      24      34      35      36      37      45
      46      19      20      21      22      20      21      22      21      22
      23      24      25      45      46      47      22      23      24      25
      45      46      48      23      24      25      45      46      47      48
      24      25      45      47      48      25      46      47      48      45
      46      47      48      27      28      49      50      51      52      53
      28      49      50      51      52      53      49      50      51      52
      53      30      31      32      33      54      55      56      57      31
      32      33      54      55      56      57      58      59      60      61
      32      33      54      55      56      57      58      59      60      61
      33      55      56      57      58      59      60      61      55      56
      57      58      59      60      61      35      38      38      37      39
      39       0      40      41      41       0      43      44      44       0
       0      47      48       0      50      51      52      53      51      52
      53      52      53      53       0      55      56      56      57      57
      58      59      60      61      59      60      61      60      61      61
       0
%FLAG HBOND_ACOEF
%FORMAT(5E16.8)

%FLAG HBOND_BCOEF
%FORMAT(5E16.8)

%FLAG HBCUT
%FORMAT(5E16.8)

%FLAG AMBER_ATOM_TYPE
%FORMAT(20a4)
n3  c6  c6  c6  c6  n   ca  c6  c   ca  ca  o   c3  nb  nb  ca  sy  o   o   ca  
ca  ca  nb  ca  ca  cx  cx  cx  nu  c3  cx  cx  cx  h1  h1  h1  h1  h1  h1  hc  
hc  hc  hc  hc  h4  ha  ha  h4  hc  hc  hc  hc  hc  hn  h1  h1  hc  hc  hc  hc  
hc  
%FLAG TREE_CHAIN_CLASSIFICATION
%FORMAT(20a4)
BLA BLA BLA BLA BLA BLA BLA BLA BLA BLA BLA BLA BLA BLA BLA BLA BLA BLA BLA BLA 
BLA BLA BLA BLA BLA BLA BLA BLA BLA BLA BLA BLA BLA BLA BLA BLA BLA BLA BLA BLA 
BLA BLA BLA BLA BLA BLA BLA BLA BLA BLA BLA BLA BLA BLA BLA BLA BLA BLA BLA BLA 
BLA 
%FLAG JOIN_ARRAY
%FORMAT(10I8)
       0       0       0       0       0       0       0       0       0       0
       0       0       0       0       0       0       0       0       0       0
       0       0       0       0       0       0       0       0       0       0
       0       0       0       0       0       0       0       0       0       0
       0       0       0       0       0       0       0       0       0       0
       0       0       0       0       0       0       0       0       0       0
       0
%FLAG IROTAT
%FORMAT(10I8)
       0       0       0       0       0       0       0       0       0       0
       0       0       0       0       0       0       0       0       0       0
       0       0       0       0       0       0       0       0       0       0
       0       0       0       0       0       0       0       0       0       0
       0       0       0       0       0       0       0       0       0       0
       0       0       0       0       0       0       0       0       0       0
       0
%FLAG RADIUS_SET
%FORMAT(1a80)
H(N)-modified Bondi radii (mbondi2)                                             
%FLAG RADII
%FORMAT(5E16.8)
  1.55000000E+00  1.70000000E+00  1.70000000E+00  1.70000000E+00  1.70000000E+00
  1.55000000E+00  1.70000000E+00  1.70000000E+00  1.70000000E+00  1.70000000E+00
  1.70000000E+00  1.50000000E+00  1.70000000E+00  1.55000000E+00  1.55000000E+00
  1.70000000E+00  1.80000000E+00  1.50000000E+00  1.50000000E+00  1.70000000E+00
  1.70000000E+00  1.70000000E+00  1.55000000E+00  1.70000000E+00  1.70000000E+00
  1.70000000E+00  1.70000000E+00  1.70000000E+00  1.55000000E+00  1.70000000E+00
  1.70000000E+00  1.70000000E+00  1.70000000E+00  1.20000000E+00  1.20000000E+00
  1.20000000E+00  1.20000000E+00  1.20000000E+00  1.20000000E+00  1.20000000E+00
  1.20000000E+00  1.20000000E+00  1.20000000E+00  1.20000000E+00  1.20000000E+00
  1.20000000E+00  1.20000000E+00  1.20000000E+00  1.20000000E+00  1.20000000E+00
  1.20000000E+00  1.20000000E+00  1.20000000E+00  1.30000000E+00  1.20000000E+00
  1.20000000E+00  1.20000000E+00  1.20000000E+00  1.20000000E+00  1.20000000E+00
  1.20000000E+00
%FLAG SCREEN
%FORMAT(5E16.8)
  7.90000000E-01  7.20000000E-01  7.20000000E-01  7.20000000E-01  7.20000000E-01
  7.90000000E-01  7.20000000E-01  7.20000000E-01  7.20000000E-01  7.20000000E-01
  7.20000000E-01  8.50000000E-01  7.20000000E-01  7.90000000E-01  7.90000000E-01
  7.20000000E-01  9.60000000E-01  8.50000000E-01  8.50000000E-01  7.20000000E-01
  7.20000000E-01  7.20000000E-01  7.90000000E-01  7.20000000E-01  7.20000000E-01
  7.20000000E-01  7.20000000E-01  7.20000000E-01  7.90000000E-01  7.20000000E-01
  7.20000000E-01  7.20000000E-01  7.20000000E-01  8.50000000E-01  8.50000000E-01
  8.50000000E-01  8.50000000E-01  8.50000000E-01  8.50000000E-01  8.50000000E-01
  8.50000000E-01  8.50000000E-01  8.50000000E-01  8.50000000E-01  8.50000000E-01
  8.50000000E-01  8.50000000E-01  8.50000000E-01  8.50000000E-01  8.50000000E-01
  8.50000000E-01  8.50000000E-01  8.50000000E-01  8.50000000E-01  8.50000000E-01
  8.50000000E-01  8.50000000E-01  8.50000000E-01  8.50000000E-01  8.50000000E-01
  8.50000000E-01
%FLAG IPOL
%FORMAT(1I8)
       0
