%VERSION  VERSION_STAMP = V0001.000  DATE = 09/03/26  21:51:46
%FLAG TITLE
%FORMAT(20a4)
default_name
%FLAG POINTERS
%FORMAT(10I8)
      61      29      28      37      65      53     105      99       0       0
     346       1      37      53      99      31      64      41      52       0
       0       0       0       0       0       0       0       0      61       0
       0
%FLAG ATOM_NAME
%FORMAT(20a4)
C1  N1  C2  C3  C4  C5  N2  N3  C6  C7  N4  C8  C9  C10 C11 O1  N5  C12 C13 O2  
N6  C14 C15 C16 C17 C18 S1  C19 C20 C21 C22 O3  C23 H1  H2  H3  H4  H5  H6  H7  
H8  H9  H10 H11 H12 H13 H14 H15 H16 H17 H18 H19 H20 H21 H22 H23 H24 H25 H26 H27 
H28 
%FLAG CHARGE
%FORMAT(5E16.8)
  9.50475168E+00 -1.36485027E+01 -6.31220472E+00  1.57240227E+01  8.68839264E+00
 -2.86454556E+00 -1.36120581E+01 -3.09961323E+00 -2.07916443E+00  4.84713180E-01
 -1.30708558E+01  2.49281064E+00  3.38570334E+00  1.24367197E+01 -2.33974332E+00
 -1.19264953E+01 -1.04942226E+01  1.89511920E+00  1.27865879E+01 -1.08987576E+01
 -8.34216894E+00  1.73111850E+00  1.73111850E+00 -1.72018512E+00 -1.72018512E+00
 -2.13200910E+00  1.35209466E+00 -4.97651013E+00 -2.18849823E+00  2.15205363E+00
 -3.09050208E+00 -5.55597927E+00  2.07187551E+00  2.91556800E+00  3.11601330E+00
  1.08180328E+00  1.08180328E+00  1.08180328E+00  1.66187376E+00  1.66187376E+00
  1.32476121E+00  1.32476121E+00  1.04231556E+00  1.04231556E+00  5.78558025E+00
  7.78092210E-01  7.78092210E-01  9.78537510E-01  9.78537510E-01  9.78537510E-01
  9.78537510E-01  1.07876016E+00  1.07876016E+00  1.07876016E+00  1.07876016E+00
  1.47053961E+00  3.24356940E+00  3.40757010E+00  8.69203710E-01  8.69203710E-01
  8.69203710E-01
%FLAG ATOMIC_NUMBER
%FORMAT(10I8)
       6       7       6       6       6       6       7       7       6       6
       7       6       6       6       6       8       7       6       6       8
       7       6       6       6       6       6      16       6       6       6
       6       8       6       1       1       1       1       1       1       1
       1       1       1       1       1       1       1       1       1       1
       1       1       1       1       1       1       1       1       1       1
       1
%FLAG MASS
%FORMAT(5E16.8)
  1.20100000E+01  1.40100000E+01  1.20100000E+01  1.20100000E+01  1.20100000E+01
  1.20100000E+01  1.40100000E+01  1.40100000E+01  1.20100000E+01  1.20100000E+01
  1.40100000E+01  1.20100000E+01  1.20100000E+01  1.20100000E+01  1.20100000E+01
  1.60000000E+01  1.40100000E+01  1.20100000E+01  1.20100000E+01  1.60000000E+01
  1.40100000E+01  1.20100000E+01  1.20100000E+01  1.20100000E+01  1.20100000E+01
  1.20100000E+01  3.20600000E+01  1.20100000E+01  1.20100000E+01  1.20100000E+01
  1.20100000E+01  1.60000000E+01  1.20100000E+01  1.00800000E+00  1.00800000E+00
  1.00800000E+00  1.00800000E+00  1.00800000E+00  1.00800000E+00  1.00800000E+00
  1.00800000E+00  1.00800000E+00  1.00800000E+00  1.00800000E+00  1.00800000E+00
  1.00800000E+00  1.00800000E+00  1.00800000E+00  1.00800000E+00  1.00800000E+00
  1.00800000E+00  1.00800000E+00  1.00800000E+00  1.00800000E+00  1.00800000E+00
  1.00800000E+00  1.00800000E+00  1.00800000E+00  1.00800000E+00  1.00800000E+00
  1.00800000E+00
%FLAG ATOM_TYPE_INDEX
%FORMAT(10I8)
      15      16      15      15      15      15      16      17      15      18
      19      18      18      15      18      20      21      18      15      20
      22      18      18      18      18      18      23      15      15      15
      15      24      18      25      26      27      27      27      27      27
      27      27      28      28      29      27      27      27      27      27
      27      28      28      28      28      28      26      26      27      27
      27
%FLAG NUMBER_EXCLUDED_ATOMS
%FORMAT(10I8)
      20      12      13      13      12       7       6       7       6       4
      13      11      12       9       9       5       8       7      17       6
      16      12      11       9       8       9       7       7       5       8
       4       5       3       1       1       2       1       1       1       1
       3       2       3       2       2       1       1       3       2       3
       2       2       1       2       1       1       1       1       2       1
       1
%FLAG NONBONDED_PARM_INDEX
%FORMAT(10I8)
       1       2       4       7      11      16      22      29      37      46
      56      67      79      92     106     121     137     154     172     191
     211     232     254     277     301     326     352     379     407       2
       3       5       8      12      17      23      30      38      47      57
      68      80      93     107     122     138     155     173     192     212
     233     255     278     302     327     353     380     408       4       5
       6       9      13      18      24      31      39      48      58      69
      81      94     108     123     139     156     174     193     213     234
     256     279     303     328     354     381     409       7       8       9
      10      14      19      25      32      40      49      59      70      82
      95     109     124     140     157     175     194     214     235     257
     280     304     329     355     382     410      11      12      13      14
      15      20      26      33      41      50      60      71      83      96
     110     125     141     158     176     195     215     236     258     281
     305     330     356     383     411      16      17      18      19      20
      21      27      34      42      51      61      72      84      97     111
     126     142     159     177     196     216     237     259     282     306
     331     357     384     412      22      23      24      25      26      27
      28      35      43      52      62      73      85      98     112     127
     143     160     178     197     217     238     260     283     307     332
     358     385     413      29      30      31      32      33      34      35
      36      44      53      63      74      86      99     113     128     144
     161     179     198     218     239     261     284     308     333     359
     386     414      37      38      39      40      41      42      43      44
      45      54      64      75      87     100     114     129     145     162
     180     199     219     240     262     285     309     334     360     387
     415      46      47      48      49      50      51      52      53      54
      55      65      76      88     101     115     130     146     163     181
     200     220     241     263     286     310     335     361     388     416
      56      57      58      59      60      61      62      63      64      65
      66      77      89     102     116     131     147     164     182     201
     221     242     264     287     311     336     362     389     417      67
      68      69      70      71      72      73      74      75      76      77
      78      90     103     117     132     148     165     183     202     222
     243     265     288     312     337     363     390     418      79      80
      81      82      83      84      85      86      87      88      89      90
      91     104     118     133     149     166     184     203     223     244
     266     289     313     338     364     391     419      92      93      94
      95      96      97      98      99     100     101     102     103     104
     105     119     134     150     167     185     204     224     245     267
     290     314     339     365     392     420     106     107     108     109
     110     111     112     113     114     115     116     117     118     119
     120     135     151     168     186     205     225     246     268     291
     315     340     366     393     421     121     122     123     124     125
     126     127     128     129     130     131     132     133     134     135
     136     152     169     187     206     226     247     269     292     316
     341     367     394     422     137     138     139     140     141     142
     143     144     145     146     147     148     149     150     151     152
     153     170     188     207     227     248     270     293     317     342
     368     395     423     154     155     156     157     158     159     160
     161     162     163     164     165     166     167     168     169     170
     171     189     208     228     249     271     294     318     343     369
     396     424     172     173     174     175     176     177     178     179
     180     181     182     183     184     185     186     187     188     189
     190     209     229     250     272     295     319     344     370     397
     425     191     192     193     194     195     196     197     198     199
     200     201     202     203     204     205     206     207     208     209
     210     230     251     273     296     320     345     371     398     426
     211     212     213     214     215     216     217     218     219     220
     221     222     223     224     225     226     227     228     229     230
     231     252     274     297     321     346     372     399     427     232
     233     234     235     236     237     238     239     240     241     242
     243     244     245     246     247     248     249     250     251     252
     253     275     298     322     347     373     400     428     254     255
     256     257     258     259     260     261     262     263     264     265
     266     267     268     269     270     271     272     273     274     275
     276     299     323     348     374     401     429     277     278     279
     280     281     282     283     284     285     286     287     288     289
     290     291     292     293     294     295     296     297     298     299
     300     324     349     375     402     430     301     302     303     304
     305     306     307     308     309     310     311     312     313     314
     315     316     317     318     319     320     321     322     323     324
     325     350     376     403     431     326     327     328     329     330
     331     332     333     334     335     336     337     338     339     340
     341     342     343     344     345     346     347     348     349     350
     351     377     404     432     352     353     354     355     356     357
     358     359     360     361     362     363     364     365     366     367
     368     369     370     371     372     373     374     375     376     377
     378     405     433     379     380     381     382     383     384     385
     386     387     388     389     390     391     392     393     394     395
     396     397     398     399     400     401     402     403     404     405
     406     434     407     408     409     410     411     412     413     414
     415     416     417     418     419     420     421     422     423     424
     425     426     427     428     429     430     431     432     433     434
     435
%FLAG RESIDUE_LABEL
%FORMAT(20a4)
LIG 
%FLAG RESIDUE_POINTER
%FORMAT(10I8)
       1
%FLAG BOND_FORCE_CONSTANT
%FORMAT(5E16.8)
  3.44220000E+02  2.82270000E+02  3.52890000E+02  3.21490000E+02  3.86240000E+02
  3.68720000E+02  2.31660000E+02  3.42750000E+02  2.26810000E+02  3.42020000E+02
  2.52360000E+02  2.78120000E+02  5.90600000E+02  3.17460000E+02  2.61660000E+02
  4.73590000E+02  2.28890000E+02  3.45250000E+02  3.36070000E+02  2.34850000E+02
  2.56920000E+02  3.67290000E+02  2.54790000E+02  3.32450000E+02  3.64120000E+02
  3.29320000E+02  3.86490000E+02  3.10840000E+02  3.54250000E+02  2.96500000E+02
  2.39730000E+02
%FLAG BOND_EQUIL_VALUE
%FORMAT(5E16.8)
  1.09690000E+00  1.42730000E+00  1.36080000E+00  1.42790000E+00  1.37300000E+00
  1.08090000E+00  1.75380000E+00  1.09790000E+00  1.53840000E+00  1.09840000E+00
  1.46690000E+00  1.47280000E+00  1.21900000E+00  1.39670000E+00  1.45560000E+00
  1.01320000E+00  1.53540000E+00  1.09620000E+00  1.37980000E+00  1.52700000E+00
  1.46130000E+00  1.08180000E+00  1.46390000E+00  1.38300000E+00  1.08380000E+00
  1.38580000E+00  1.33920000E+00  1.40300000E+00  1.39860000E+00  1.45280000E+00
  1.52030000E+00
%FLAG ANGLE_FORCE_CONSTANT
%FORMAT(5E16.8)
  3.56400000E+01  3.59300000E+01  3.57700000E+01  3.58000000E+01  5.62000000E+01
  4.39500000E+01  7.88700000E+01  8.89500000E+01  6.45700000E+01  1.02140000E+02
  8.08000000E+01  6.66200000E+01  4.21100000E+01  4.32300000E+01  4.32800000E+01
  6.01800000E+01  7.69600000E+01  6.79300000E+01  6.52900000E+01  4.80600000E+01
  7.83100000E+01  8.66800000E+01  6.21000000E+01  6.00200000E+01  7.66300000E+01
  4.32700000E+01  5.46200000E+01  4.83900000E+01  8.72100000E+01  4.32800000E+01
  6.54300000E+01  4.37400000E+01  7.69000000E+01  5.73700000E+01  5.98700000E+01
  7.64300000E+01  7.64500000E+01  6.61000000E+01  6.52400000E+01  4.79700000E+01
  6.48100000E+01  4.53000000E+01  7.54900000E+01  4.81000000E+01  4.80800000E+01
  7.40100000E+01  7.15300000E+01  7.19900000E+01  4.42000000E+01  6.21900000E+01
  7.69700000E+01  8.35100000E+01  8.31500000E+01  7.69400000E+01  6.06600000E+01
  6.78200000E+01  6.81700000E+01  6.40000000E+01  4.29800000E+01  6.68100000E+01
  7.27600000E+01  6.02800000E+01  4.36900000E+01  6.36700000E+01
%FLAG ANGLE_EQUIL_VALUE
%FORMAT(5E16.8)
  1.89455572E+00  1.86087085E+00  1.87622975E+00  1.88024401E+00  1.92579712E+00
  2.25339556E+00  2.04989009E+00  2.04517769E+00  2.02824799E+00  1.57708019E+00
  2.03697464E+00  1.94691562E+00  2.09701400E+00  1.91026369E+00  1.90555129E+00
  1.93836350E+00  1.99089793E+00  1.96506705E+00  1.94028336E+00  1.89403212E+00
  2.15914774E+00  2.13925098E+00  2.11743436E+00  2.19056368E+00  2.10259905E+00
  1.91427794E+00  2.04936649E+00  1.89350852E+00  2.14762857E+00  1.91270715E+00
  1.94935908E+00  1.89141412E+00  2.12860447E+00  2.04657396E+00  1.96576518E+00
  2.03435665E+00  2.14501057E+00  2.00765310E+00  1.96628878E+00  1.91427794E+00
  1.98060048E+00  2.11883062E+00  2.19038915E+00  1.89822091E+00  2.09736306E+00
  2.04430503E+00  2.21831443E+00  1.90223517E+00  2.22773921E+00  2.11027850E+00
  2.10312265E+00  1.89839544E+00  2.04622489E+00  2.08619295E+00  2.10486798E+00
  2.09980652E+00  2.14570870E+00  2.02510640E+00  2.14501057E+00  2.01917228E+00
  2.22180509E+00  1.95424600E+00  1.91061275E+00  2.09474507E+00
%FLAG DIHEDRAL_FORCE_CONSTANT
%FORMAT(5E16.8)
  0.00000000E+00  1.55555556E-01  2.50000000E+00  2.00000000E+00  0.00000000E+00
  8.00000000E-01  8.00000000E-02  0.00000000E+00  3.62500000E+00  1.20000000E-01
  4.00000000E+00  1.05000000E+00  2.70000000E+00  9.00000000E-01  3.83333333E-01
  1.26000000E+00  0.00000000E+00  1.10000000E+00  1.30000000E-01  5.20000000E-01
  2.87500000E+00  1.00000000E-01  1.02000000E+00  1.70000000E-01  1.00000000E-01
  1.15000000E+00  2.30000000E-01  5.80000000E-01  9.10000000E-01  9.30000000E-01
  2.10000000E-01  1.70000000E+00  1.05000000E+00  3.00000000E-01  5.85000000E-01
  7.00000000E-01  4.80000000E+00  3.32000000E-01  2.40000000E-01  1.10000000E+00
  1.05000000E+01
%FLAG DIHEDRAL_PERIODICITY
%FORMAT(5E16.8)
  2.00000000E+00  3.00000000E+00  2.00000000E+00  1.00000000E+00  1.00000000E+00
  1.00000000E+00  3.00000000E+00  3.00000000E+00  2.00000000E+00  3.00000000E+00
  2.00000000E+00  1.00000000E+00  2.00000000E+00  3.00000000E+00  3.00000000E+00
  1.00000000E+00  2.00000000E+00  2.00000000E+00  3.00000000E+00  3.00000000E+00
  2.00000000E+00  3.00000000E+00  1.00000000E+00  3.00000000E+00  4.00000000E+00
  1.00000000E+00  2.00000000E+00  1.00000000E+00  2.00000000E+00  3.00000000E+00
  3.00000000E+00  2.00000000E+00  2.00000000E+00  2.00000000E+00  2.00000000E+00
  2.00000000E+00  2.00000000E+00  2.00000000E+00  2.00000000E+00  2.00000000E+00
  2.00000000E+00
%FLAG DIHEDRAL_PHASE
%FORMAT(5E16.8)
  0.00000000E+00  0.00000000E+00  3.14159400E+00  0.00000000E+00  0.00000000E+00
  0.00000000E+00  3.14159400E+00  0.00000000E+00  3.14159400E+00  0.00000000E+00
  3.14159400E+00  3.14159400E+00  3.14159400E+00  3.14159400E+00  0.00000000E+00
  3.14159400E+00  3.14159400E+00  3.14159400E+00  0.00000000E+00  0.00000000E+00
  3.14159400E+00  0.00000000E+00  3.14159400E+00  0.00000000E+00  3.14159400E+00
  3.14159400E+00  3.14159400E+00  3.14159400E+00  3.14159400E+00  0.00000000E+00
  0.00000000E+00  3.14159400E+00  3.14159400E+00  3.14159400E+00  3.14159400E+00
  3.14159400E+00  3.14159400E+00  0.00000000E+00  3.14159400E+00  3.14159400E+00
  3.14159400E+00
%FLAG SCEE_SCALE_FACTOR
%FORMAT(5E16.8)
  1.20000000E+00  1.20000000E+00  1.20000000E+00  1.20000000E+00  1.20000000E+00
  1.20000000E+00  1.20000000E+00  1.20000000E+00  1.20000000E+00  1.20000000E+00
  1.20000000E+00  1.20000000E+00  1.20000000E+00  1.20000000E+00  1.20000000E+00
  1.20000000E+00  1.20000000E+00  1.20000000E+00  1.20000000E+00  1.20000000E+00
  1.20000000E+00  1.20000000E+00  1.20000000E+00  1.20000000E+00  1.20000000E+00
  1.20000000E+00  1.20000000E+00  1.20000000E+00  1.20000000E+00  1.20000000E+00
  1.20000000E+00  1.20000000E+00  1.20000000E+00  1.20000000E+00  1.20000000E+00
  1.20000000E+00  1.20000000E+00  1.20000000E+00  1.20000000E+00  0.00000000E+00
  0.00000000E+00
%FLAG SCNB_SCALE_FACTOR
%FORMAT(5E16.8)
  2.00000000E+00  2.00000000E+00  2.00000000E+00  2.00000000E+00  2.00000000E+00
  2.00000000E+00  2.00000000E+00  2.00000000E+00  2.00000000E+00  2.00000000E+00
  2.00000000E+00  2.00000000E+00  2.00000000E+00  2.00000000E+00  2.00000000E+00
  2.00000000E+00  2.00000000E+00  2.00000000E+00  2.00000000E+00  2.00000000E+00
  2.00000000E+00  2.00000000E+00  2.00000000E+00  2.00000000E+00  2.00000000E+00
  2.00000000E+00  2.00000000E+00  2.00000000E+00  2.00000000E+00  2.00000000E+00
  2.00000000E+00  2.00000000E+00  2.00000000E+00  2.00000000E+00  2.00000000E+00
  2.00000000E+00  2.00000000E+00  2.00000000E+00  2.00000000E+00  0.00000000E+00
  0.00000000E+00
%FLAG SOLTY
%FORMAT(5E16.8)
  0.00000000E+00  0.00000000E+00  0.00000000E+00  0.00000000E+00  0.00000000E+00
  0.00000000E+00  0.00000000E+00  0.00000000E+00  0.00000000E+00  0.00000000E+00
  0.00000000E+00  0.00000000E+00  0.00000000E+00  0.00000000E+00  0.00000000E+00
  0.00000000E+00  0.00000000E+00  0.00000000E+00  0.00000000E+00  0.00000000E+00
  0.00000000E+00  0.00000000E+00  0.00000000E+00  0.00000000E+00  0.00000000E+00
  0.00000000E+00  0.00000000E+00  0.00000000E+00  0.00000000E+00  0.00000000E+00
  0.00000000E+00  0.00000000E+00  0.00000000E+00  0.00000000E+00  0.00000000E+00
  0.00000000E+00  0.00000000E+00  0.00000000E+00  0.00000000E+00  0.00000000E+00
  0.00000000E+00  0.00000000E+00  0.00000000E+00  0.00000000E+00  0.00000000E+00
  0.00000000E+00  0.00000000E+00  0.00000000E+00  0.00000000E+00  0.00000000E+00
  0.00000000E+00  0.00000000E+00
%FLAG LENNARD_JONES_ACOEF
%FORMAT(5E16.8)
  9.44293233E+05  2.12601181E+03  1.39982777E-01  9.95480466E+05  2.56678134E+03
  1.04308023E+06  2.01791425E+04  9.14716912E+00  2.27401052E+04  2.01823541E+02
  8.96776989E+04  1.07193646E+02  9.71708117E+04  1.41077189E+03  7.51607703E+03
  8.82619071E+05  2.27577561E+03  9.24822270E+05  2.01619733E+04  8.61541883E+04
  8.19971662E+05  7.91627154E+04  8.90987508E+01  8.59947003E+04  1.21014911E+03
  6.55825601E+03  7.62451550E+04  5.71629601E+03  6.06829342E+05  1.02595236E+03
  6.47841731E+05  1.12780457E+04  5.44261042E+04  5.74393458E+05  4.77908183E+04
  3.79876399E+05  6.20665997E+04  5.94667300E+01  6.78771368E+04  8.79040886E+02
  4.98586848E+03  6.01816484E+04  4.33325458E+03  3.69471530E+04  3.25969625E+03
  7.44975864E+05  1.40467023E+03  7.91544157E+05  1.45985502E+04  6.82786631E+04
  7.01803794E+05  6.00750218E+04  4.71003287E+05  4.66922514E+04  5.81803229E+05
  0.00000000E+00  0.00000000E+00  0.00000000E+00  0.00000000E+00  0.00000000E+00
  0.00000000E+00  0.00000000E+00  0.00000000E+00  0.00000000E+00  0.00000000E+00
  0.00000000E+00  5.46147253E+04  4.90239937E+01  5.98885646E+04  7.50063100E+02
  4.33325458E+03  5.30987710E+04  3.76169105E+03  3.23283631E+04  2.82099197E+03
  4.09427581E+04  0.00000000E+00  2.43828624E+03  6.58473870E+04  6.63368273E+01
  7.18621074E+04  9.55000044E+02  5.34045360E+03  6.37148278E+04  4.64559155E+03
  3.93690817E+04  3.50301067E+03  4.96707306E+04  0.00000000E+00  3.03448006E+03
  3.76169105E+03  2.01562190E+06  5.97860700E+03  2.09861767E+06  4.93469320E+04
  2.02461849E+05  1.86068943E+06  1.79647996E+05  1.32911052E+06  1.42791446E+05
  1.61587928E+06  0.00000000E+00  1.26338489E+05  1.50848032E+05  4.19430400E+06
  8.11497350E+05  1.94008400E+03  8.53193737E+05  1.78601506E+04  7.80065389E+04
  7.56463928E+05  6.89371259E+04  5.24402060E+05  5.42099106E+04  6.42430744E+05
  0.00000000E+00  4.77581094E+04  5.74592031E+04  1.72268611E+06  6.96551276E+05
  8.97750460E+05  2.28331226E+03  9.41257953E+05  2.03696482E+04  8.73875986E+04
  8.34543970E+05  7.73168790E+04  5.83493927E+05  6.09861363E+04  7.13267446E+05
  0.00000000E+00  5.37939286E+04  6.45801516E+04  1.89497992E+06  7.69642101E+05
  8.49322032E+05  9.53586341E+05  2.05956322E+03  1.00713741E+06  1.99671374E+04
  8.98060491E+04  8.92954421E+05  7.92148074E+04  6.10454299E+05  6.19803600E+04
  7.50514003E+05  0.00000000E+00  5.44940453E+04  6.57976999E+04  2.04316647E+06
  8.20152428E+05  9.08092643E+05  9.62429652E+05  9.84684600E+05  2.53456440E+03
  1.03184851E+06  2.24743442E+04  9.60832554E+04  9.14863930E+05  8.50294791E+04
  6.40712560E+05  6.71095195E+04  7.82881336E+05  0.00000000E+00  5.92092559E+04
  7.10513128E+04  2.07618920E+06  8.43969952E+05  9.31115275E+05  9.96191545E+05
  1.02073671E+06  9.50022877E+05  2.02114743E+03  1.00404584E+06  1.97462273E+04
  8.91997078E+04  8.90213356E+05  7.86579432E+04  6.07328148E+05  6.14989540E+04
  7.47063186E+05  0.00000000E+00  5.40546746E+04  6.53016946E+04  2.03831950E+06
  8.17329084E+05  9.05243612E+05  9.58637891E+05  9.93125065E+05  9.54790629E+05
  5.99897901E+05  1.11043914E+03  6.37913494E+05  1.16505362E+04  5.47803235E+04
  5.65590822E+05  4.81820985E+04  3.78641356E+05  3.74148715E+04  4.68011805E+05
  0.00000000E+00  3.27958584E+04  3.98127143E+04  1.30335373E+06  5.17507491E+05
  5.74782316E+05  6.04208667E+05  6.30925504E+05  6.01376873E+05  3.76435470E+05
  8.14127222E+05  1.86723722E+03  8.57549298E+05  1.75564320E+04  7.76056179E+04
  7.60325682E+05  6.85297634E+04  5.24079334E+05  5.37791327E+04  6.42970500E+05
  0.00000000E+00  4.73396390E+04  5.70388968E+04  1.73484330E+06  6.99381362E+05
  7.73425391E+05  8.22346035E+05  8.48258258E+05  8.19347611E+05  5.17814271E+05
  7.01825028E+05  8.14793385E+05  1.71845864E+03  8.61458248E+05  1.68636880E+04
  7.63694318E+04  7.63791460E+05  6.73331169E+04  5.20462539E+05  5.26221036E+04
  6.40405042E+05  0.00000000E+00  4.62444096E+04  5.58833643E+04  1.74955513E+06
  7.01106848E+05  7.76656876E+05  8.22085792E+05  8.52084164E+05  8.18751801E+05
  5.15491878E+05  7.02755693E+05  7.02078680E+05  2.02752779E+06  5.85957523E+03
  2.11351845E+06  4.90026081E+04  2.02574546E+05  1.87390085E+06  1.79659945E+05
  1.33368524E+06  1.42615819E+05  1.62294350E+06  0.00000000E+00  1.26117560E+05
  1.50723105E+05  4.22933186E+06  1.73376823E+06  1.90820499E+06  2.05449504E+06
  2.09089895E+06  2.04935397E+06  1.30884564E+06  1.74537186E+06  1.75889445E+06
  4.26366419E+06  5.18220260E+05  1.06722540E+03  5.48478208E+05  1.06013455E+04
  4.83404799E+04  4.86295154E+05  4.26018274E+04  3.30296908E+05  3.32551339E+04
  4.06752008E+05  0.00000000E+00  2.92109361E+04  3.53289728E+04  1.11514486E+06
  4.46121722E+05  4.94433451E+05  5.22690526E+05  5.42502534E+05  5.20510209E+05
  3.27367585E+05  4.47026838E+05  4.46307018E+05  1.12086734E+06  2.83662575E+05
  8.64679274E+04  1.00417924E+02  9.38067954E+04  1.34169202E+03  7.20681791E+03
  8.31715633E+04  6.28513799E+03  5.23449021E+04  4.77162373E+03  6.57310418E+04
  0.00000000E+00  4.14474284E+03  5.11317150E+03  1.95699890E+05  7.52549148E+04
  8.43518904E+04  8.65595848E+04  9.27554496E+04  8.59636060E+04  5.27277400E+04
  7.48403283E+04  7.35931098E+04  1.95762765E+05  4.65732396E+04  6.90855956E+03
  7.19825646E+04  7.49206038E+01  7.84511674E+04  1.06023582E+03  5.87454193E+03
  6.95568610E+04  5.11317150E+03  4.31596374E+04  3.86158714E+03  5.43945007E+04
  0.00000000E+00  3.34719214E+03  4.14474284E+03  1.64447369E+05  6.27751680E+04
  7.05112106E+04  7.19580450E+04  7.75673747E+04  7.14263282E+04  4.36069364E+04
  6.23418310E+04  6.11299385E+04  1.64354276E+05  3.86549715E+04  5.62610481E+03
  4.56536476E+03  6.43853349E+04  5.78352684E+01  7.06006146E+04  8.84544347E+02
  5.10916075E+03  6.25963552E+04  4.43530964E+03  3.81142515E+04  3.32626784E+03
  4.82692694E+04  0.00000000E+00  2.87505342E+03  3.57795711E+03  1.48931701E+05
  5.63013422E+04  6.34160397E+04  6.42436358E+04  6.97998263E+04  6.37258620E+04
  3.86646725E+04  5.58085097E+04  5.45183252E+04  1.48672098E+05  3.44374471E+04
  4.88692384E+03  3.94664935E+03  3.39005767E+03  9.33217616E+04  1.05103439E+02
  1.01372942E+05  1.42703904E+03  7.73223568E+03  8.98799076E+04  6.73963720E+03
  5.63419090E+04  5.10916075E+03  7.08225575E+04  0.00000000E+00  4.43530964E+03
  5.47737117E+03  2.11768029E+05  8.12662403E+04  9.11435380E+04  9.33839501E+04
  1.00235148E+05  9.27277603E+04  5.68021765E+04  8.07866982E+04  7.93773615E+04
  2.11783234E+05  5.02224902E+04  7.41026906E+03  6.02863188E+03  5.22955465E+03
  7.94617769E+03  1.88178855E+03  1.37574453E-01  2.26409483E+03  8.45902425E+00
  9.64710720E+01  2.00740581E+03  8.03166617E+01  9.14858779E+02  5.38411501E+01
  1.24900897E+03  0.00000000E+00  4.44659845E+01  5.99788431E+01  5.25501858E+03
  1.71458823E+03  2.01475241E+03  1.82491629E+03  2.23577481E+03  1.79157166E+03
  9.87857350E+02  1.65195713E+03  1.52360475E+03  5.15374979E+03  9.46795083E+02
  9.04434904E+01  6.76796831E+01  5.24570081E+01  9.47421632E+01  1.34728399E-01
%FLAG LENNARD_JONES_BCOEF
%FORMAT(5E16.8)
  8.01323529E+02  2.09604198E+01  9.37598976E-02  7.36907417E+02  2.06278363E+01
  6.75612247E+02  6.45756063E+01  7.57919667E-01  6.13981767E+01  3.56012899E+00
  1.36131731E+02  2.59456373E+00  1.26919150E+02  9.41257003E+00  2.17257828E+01
  6.53361429E+02  1.82891803E+01  5.99015525E+02  5.44372326E+01  1.12529845E+02
  5.31102864E+02  1.26451907E+02  2.33864085E+00  1.18043746E+02  8.61880722E+00
  2.00642027E+01  1.04660679E+02  1.85196588E+01  6.77220874E+02  1.53505284E+01
  6.26720080E+02  5.08951803E+01  1.11805549E+02  5.55666448E+02  1.03580945E+02
  5.64885984E+02  1.13252061E+02  1.93248820E+00  1.06076943E+02  7.42992380E+00
  1.76949863E+01  9.40505980E+01  1.63092814E+01  9.21192136E+01  1.43076527E+01
  7.50714425E+02  1.79702257E+01  6.93079947E+02  5.79323581E+01  1.25287818E+02
  6.14502845E+02  1.16187983E+02  6.29300710E+02  1.03606917E+02  6.99746810E+02
  0.00000000E+00  0.00000000E+00  0.00000000E+00  0.00000000E+00  0.00000000E+00
  0.00000000E+00  0.00000000E+00  0.00000000E+00  0.00000000E+00  0.00000000E+00
  0.00000000E+00  1.05031585E+02  1.73473071E+00  9.85097219E+01  6.78541827E+00
  1.63092814E+01  8.73413012E+01  1.50233639E+01  8.51921330E+01  1.31591746E+01
  9.59185913E+01  0.00000000E+00  1.20953369E+01  1.15327881E+02  2.01792524E+00
  1.07908863E+02  7.65648470E+00  1.81057616E+01  9.56748258E+01  1.66953734E+01
  9.40124296E+01  1.46638650E+01  1.05648788E+02  0.00000000E+00  1.34932874E+01
  1.50233639E+01  1.28923404E+03  3.87070358E+01  1.17824605E+03  1.11203892E+02
  2.25248294E+02  1.04466382E+03  2.09772716E+02  1.10369829E+03  1.89165096E+02
  1.21753341E+03  0.00000000E+00  1.75916126E+02  1.92224012E+02  2.04800000E+03
  6.48597119E+02  1.74825352E+01  5.95658566E+02  5.30440533E+01  1.10856114E+02
  5.28126496E+02  1.03031170E+02  5.49675335E+02  9.24130897E+01  6.08686716E+02
  0.00000000E+00  8.57562161E+01  9.40636541E+01  1.04065628E+03  5.24668528E+02
  6.73934129E+02  1.87363491E+01  6.18067719E+02  5.59621097E+01  1.15911684E+02
  5.47995038E+02  1.07792209E+02  5.72796552E+02  9.68317709E+01  6.33599808E+02
  0.00000000E+00  8.99118321E+01  9.85144068E+01  1.07823819E+03  5.44830041E+02
  5.65406768E+02  8.43016687E+02  2.15976454E+01  7.75965878E+02  6.72475934E+01
  1.42617112E+02  6.87991684E+02  1.32424984E+02  7.11091246E+02  1.18480231E+02
  7.88832443E+02  0.00000000E+00  1.09835130E+02  1.20690226E+02  1.35887907E+03
  6.82622272E+02  7.09588248E+02  8.86629877E+02  7.30206155E+02  2.04226110E+01
  6.69494459E+02  6.08139360E+01  1.25742895E+02  5.93591333E+02  1.16947855E+02
  6.20970728E+02  1.05087646E+02  6.86742760E+02  0.00000000E+00  9.75893223E+01
  1.06903901E+02  1.16762437E+03  5.90251928E+02  6.12468585E+02  7.68900328E+02
  6.63431737E+02  8.52351781E+02  2.16727250E+01  7.84821174E+02  6.77417777E+01
  1.43978034E+02  6.95843022E+02  1.33669929E+02  7.18465865E+02  1.19549672E+02
  7.97222803E+02  0.00000000E+00  1.10810025E+02  1.21793651E+02  1.37486717E+03
  6.90283231E+02  7.17661669E+02  8.96356641E+02  7.77671659E+02  9.06156687E+02
  6.15165511E+02  1.45902714E+01  5.68167388E+02  4.72594809E+01  1.02477444E+02
  5.03752097E+02  9.50181887E+01  5.15240418E+02  8.46911674E+01  5.73100668E+02
  0.00000000E+00  7.83922976E+01  8.63723599E+01  9.98521059E+02  4.98871431E+02
  5.19385932E+02  6.46321327E+02  5.62969425E+02  6.53166727E+02  4.69350655E+02
  6.78274341E+02  1.79069525E+01  6.23492018E+02  5.49085611E+01  1.15443242E+02
  5.52804364E+02  1.07253000E+02  5.73720490E+02  9.61012043E+01  6.35775777E+02
  0.00000000E+00  8.91419860E+01  9.78487751E+01  1.09034051E+03  5.48900066E+02
  5.70234696E+02  7.13654906E+02  6.17825399E+02  7.21590374E+02  5.21008860E+02
  5.74088001E+02  7.37244936E+02  1.86646683E+01  6.78964813E+02  5.84691813E+01
  1.24425821E+02  6.01987997E+02  1.15508247E+02  6.21191325E+02  1.03284425E+02
  6.89389438E+02  0.00000000E+00  9.57256348E+01  1.05230082E+02  1.18966487E+03
  5.97113873E+02  6.20851625E+02  7.75261695E+02  6.72777963E+02  7.83721154E+02
  5.64804067E+02  6.24158704E+02  6.77820248E+02  1.33303578E+03  3.95051895E+01
  1.21899948E+03  1.14243284E+02  2.32280910E+02  1.08079689E+03  2.16269171E+02
  1.13979741E+03  1.94896900E+02  1.25793819E+03  0.00000000E+00  1.81199404E+02
  1.98088334E+02  2.12015227E+03  1.07629402E+03  1.11546536E+03  1.40479403E+03
  1.20800124E+03  1.42122969E+03  1.03157656E+03  1.12747567E+03  1.22973599E+03
  2.19459223E+03  4.79881022E+02  1.20051375E+01  4.42179058E+02  3.78372494E+01
  8.07968711E+01  3.92047541E+02  7.49896074E+01  4.03897559E+02  6.70144433E+01
  4.48425641E+02  0.00000000E+00  6.20954392E+01  6.82892701E+01  7.75201844E+02
  3.88758656E+02  4.04310927E+02  5.04545572E+02  4.38146883E+02  5.10021392E+02
  3.67361018E+02  4.06301077E+02  4.41089616E+02  8.01230425E+02  2.87011518E+02
  1.34516705E+02  2.52706841E+00  1.25489661E+02  9.23714573E+00  2.14083478E+01
  1.11262422E+02  1.97659043E+01  1.10338858E+02  1.74198525E+01  1.23703833E+02
  0.00000000E+00  1.60512210E+01  1.78280753E+01  2.22852114E+02  1.09570372E+02
  1.14599119E+02  1.40899023E+02  1.24325688E+02  1.42233990E+02  1.01173582E+02
  1.14083104E+02  1.22913863E+02  2.29782888E+02  7.98066064E+01  2.10929191E+01
  1.22733283E+02  2.18279029E+00  1.14759990E+02  8.21131314E+00  1.93285102E+01
  1.01749214E+02  1.78280753E+01  1.00191339E+02  1.56709129E+01  1.12531834E+02
  0.00000000E+00  1.44244612E+01  1.60512210E+01  2.04284272E+02  1.00073628E+02
  1.04776275E+02  1.28466555E+02  1.13692208E+02  1.29650812E+02  9.20079458E+01
  1.04122183E+02  1.12023534E+02  2.10544132E+02  7.27065100E+01  1.90347353E+01
  1.71467049E+01  1.23751804E+02  2.04464126E+00  1.16065835E+02  7.99614292E+00
  1.92174397E+01  1.02907011E+02  1.77023375E+01  1.00379343E+02  1.55059847E+01
  1.13016701E+02  0.00000000E+00  1.42525182E+01  1.58996004E+01  2.07264254E+02
  1.01040256E+02  1.05935811E+02  1.29412081E+02  1.14981426E+02  1.30560951E+02
  9.23664132E+01  1.05029928E+02  1.12788003E+02  2.13489607E+02  7.31636661E+01
  1.89134207E+01  1.69967767E+01  1.67944276E+01  1.48987394E+02  2.75631727E+00
  1.39078880E+02  1.01563736E+01  2.36414051E+01  1.23310980E+02  2.18216157E+01
  1.22044000E+02  1.92174397E+01  1.36896727E+02  0.00000000E+00  1.77023375E+01
  1.96722815E+01  2.47150236E+02  1.21392023E+02  1.27000718E+02  1.56025608E+02
  1.37787728E+02  1.57492664E+02  1.11953944E+02  1.26366740E+02  1.36094315E+02
  2.54804909E+02  8.83545880E+01  2.32899892E+01  2.10068861E+01  2.08590256E+01
  2.57122925E+01  1.76168249E+01  8.30374121E-02  1.73073921E+01  6.51126010E-01
  2.19888978E+00  1.53451874E+01  1.98360701E+00  1.29497639E+01  1.64271443E+00
  1.51381989E+01  0.00000000E+00  1.47593342E+00  1.71416196E+00  3.24191875E+01
  1.46824710E+01  1.57231024E+01  1.81620725E+01  1.71355763E+01  1.82287422E+01
  1.22938581E+01  1.50468782E+01  1.57004457E+01  3.30984635E+01  1.01016461E+01
  2.14252117E+00  1.85338491E+00  1.73959275E+00  2.33785449E+00  7.34107347E-02
%FLAG BONDS_INC_HYDROGEN
%FORMAT(10I8)
      96     174       1      96     177       1      96     180       1      84
     171       6      81     168       6      75     165       8      72     159
       8      72     162       8      69     153       8      69     156       8
      66     147      10      66     150      10      63     141      10      63
     144      10      51     135       1      51     138       1      48     132
      16      42     126      18      42     129      18      36     120       1
      36     123       1      33     114       1      33     117       1      27
     105       1      27     108       1      27     111       1      24     102
      22      15      99      25
%FLAG BONDS_WITHOUT_HYDROGEN
%FORMAT(10I8)
      93      96       2      87      93       3      87      90       4      84
      90       5      81      87       5      78      81       7      78      84
       7      72      75       9      69      75       9      66      72       9
      63      69       9      60      63      11      60      66      11      54
      90      12      54      57      13      54      60      14      48      51
      15      42      51      17      39      45      13      39      48      19
      36      42      17      33      39      20      30      33      21      30
      36      21      21      27      23      21      24      24      15      24
       5      12      21      26      12      18      27       9      18      27
       9      30      28       6      12      29       6      15      30       3
       9      27       0      75      31       0       3      27       0       6
      29
%FLAG ANGLES_INC_HYDROGEN
%FORMAT(10I8)
     177      96     180       1     174      96     177       1     174      96
     180       1     159      72     162       2     153      69     156       2
     147      66     150       3     141      63     144       3     135      51
     138       1     126      42     129       4     120      36     123       1
     114      33     117       1     108      27     111       1     105      27
     108       1     105      27     111       1      93      96     174       5
      93      96     177       5      93      96     180       5      90      84
     171       6      87      81     168       6      78      81     168      13
      78      84     171      13      75      69     153      14      75      69
     156      14      75      72     159      14      75      72     162      14
      72      66     147      15      72      66     150      15      72      75
     165      14      69      63     141      15      69      63     144      15
      69      75     165      14      66      72     159      14      66      72
     162      14      63      69     153      14      63      69     156      14
      60      63     141      20      60      63     144      20      60      66
     147      20      60      66     150      20      51      42     126      26
      51      42     129      26      51      48     132      27      48      51
     135      28      48      51     138      28      42      36     120      30
      42      36     123      30      42      51     135      30      42      51
     138      30      39      33     114      32      39      33     117      32
      39      48     132      34      36      42     126      26      36      42
     129      26      30      33     114      40      30      33     117      40
      30      36     120      40      30      36     123      40      24      15
      99      42      21      27     105      44      21      27     108      44
      21      27     111      44      21      24     102      45      15      24
     102      49       6      15      99      59       0      75     165      63
%FLAG ANGLES_WITHOUT_HYDROGEN
%FORMAT(10I8)
      90      87      93       7      87      93      96       8      84      90
      87       9      81      78      84      10      81      87      93      11
      81      87      90       9      78      81      87      12      78      84
      90      12      69      75      72      16      66      72      75      16
      63      60      66      17      63      69      75      16      60      54
      90      18      60      63      69      19      60      66      72      19
      57      54      90      21      57      54      60      22      54      90
      84      23      54      90      87      24      54      60      63      25
      54      60      66      25      45      39      48      29      42      51
      48      31      39      48      51      33      36      42      51      35
      33      30      36      36      33      39      45      37      33      39
      48      38      30      33      39      39      30      36      42      41
      24      21      27      43      18       9      30      46      18      12
      21      47      15      24      21      48      12       6      15      50
      12      21      27      51      12      21      24      52       9      18
      12      53       9      30      33      54       9      30      36      54
       6       0      75      55       6      12      21      56       6      12
      18      57       6      15      24      58       3       0      75      60
       3       0       6      57       3       9      18      61       3       9
      30      46       0      75      69      62       0      75      72      62
       0       3       9      53       0       6      12      64       0       6
      15      50
%FLAG DIHEDRALS_INC_HYDROGEN
%FORMAT(10I8)
     162      72      75     165      10     159      72      75     165      10
     156      69      75     165      10     153      69      75     165      10
     150      66      72     159       2     150      66      72     162       2
     147      66      72     159       2     147      66      72     162       2
     144      63      69     153       2     144      63      69     156       2
     141      63      69     153       2     141      63      69     156       2
     132      48      51     135       1     132      48      51     138       1
     129      42      51     135       2     129      42      51     138       2
     126      42      51     135       2     126      42      51     138       2
     123      36      42     126       2     123      36      42     129       2
     120      36      42     126       2     120      36      42     129       2
      99      15      24     102      11      93      87      81     168      11
      90      87      81     168      11      87      93      96     174      15
      87      93      96     177      15      87      93      96     180      15
      87      90      84     171      11      84      78      81     168      18
      81      78      84     171      18      75      69      63     141       2
      75      69      63     144       2      75      72      66     147       2
      75      72      66     150       2      72      75      69     153      19
      72      75      69     156      19      69      75      72     159      19
      69      75      72     162      19      66      60      63     141       1
      66      60      63     144       1      66      72      75     165      19
      63      60      66     147       1      63      60      66     150       1
      63      69      75     165      19      60      63      69     153       2
      60      63      69     156       2      60      66      72     159       2
      60      66      72     162       2      54      90      84     171      11
      54      60      63     141      17      54      60      63     144      17
      54      60      66     147      17      54      60      66     150      17
      51      42      36     120       2      51      42      36     123       2
      48      39      33     114      17      48      39      33     117      17
      48      51      42     126       2      48      51      42     129       2
      45      39      33     114       6      45      39     -33     114       7
      45      39      33     117       6      45      39     -33     117       7
      45      39      48     132       4      45      39     -48     132       3
      42      51      48     132       1      39      48      51     135       5
      39      48      51     138       5      36      30      33     114       1
      36      30      33     117       1      36      42      51     135       2
      36      42      51     138       2      33      30      36     120       1
      33      30      36     123       1      33      39      48     132       3
      30      36      42     126       2      30      36      42     129       2
      27      21      24     102      32      24      21      27     105       1
      24      21      27     108       1      24      21      27     111       1
      21      24      15      99      11      12       6      15      99      36
      12      21      27     105       1      12      21      27     108       1
      12      21      27     111       1      12      21      24     102      32
       9      30      33     114      38       9      30      33     117      38
       9      30      36     120      38       9      30      36     123      38
       6       0      75     165       5       6      15      24     102      11
       3       0      75     165       1       0      75      69     153       2
       0      75      69     156       2       0      75      72     159       2
       0      75      72     162       2       0       6      15      99      36
      90     171     -84     -78      41      87     168     -81     -78      41
      39      51     -48    -132      40      15     102     -24     -21      41
       6      24     -15     -99      41
%FLAG DIHEDRALS_WITHOUT_HYDROGEN
%FORMAT(10I8)
      90      87      93      96      12      90      87     -93      96      13
      90      87     -93      96      14      84      78     -81      87      16
      84      78     -81      87      17      84      78     -81      87       8
      84      90      87      93      11      81      78     -84      90      16
      81      78     -84      90      17      81      78     -84      90       8
      81      87      93      96      12      81      87     -93      96      13
      81      87     -93      96      14      81      87     -90      84      11
      78      81      87      93      11      78      81     -87      90      11
      78      84     -90      87      11      66      60      54      90       3
      66      60      63      69       1      66      72     -75      69      20
      63      60      54      90       3      63      60      66      72       1
      63      69     -75      72      20      60      54      90      84      21
      60      54      90      87      21      60      63      69      75      22
      60      66     -72      75      22      57      54      90      84      21
      57      54      90      87      21      57      54      60      63       3
      57      54      60      66       3      54      90      84      78      11
      54      90      87      81      11      54      90      87      93      11
      54      60      63      69      23      54      60     -63      69      24
      54      60     -63      69      25      54      60      66      72      23
      54      60     -66      72      24      54      60     -66      72      25
      45      39      48      51       3      39      48      51      42      26
      36      30      33      39       1      36      42      51      48      27
      33      30      36      42       1      33      39      48      51      28
      33      39     -48      51      29      33      39     -48      51      30
      30      33      39      45      17      30      33      39      48      17
      30      36      42      51      31      18       9      30      33      33
      18       9      30      36      33      18      12      21      27      34
      18      12      21      24      34      75       0       6      15       9
      15       6     -12      21       9      15       6      12      18       9
      15      24      21      27      32      75       0       6      12       9
      12       6     -15      24      35      12      21     -24      15      32
      12      18       9      30      37      75       0       3       9      37
       9      18      12      21      37       9      30      33      39       1
       9      30      36      42       1       6       0      75      69      39
       6       0      75      72      39       6       0       3       9      37
       6      12      21      27      34       6      12     -21      24      34
       6      12     -18       9      37       6      15     -24      21      11
       3       0      75      69       1       3       0      75      72       1
       3       0       6      12       9       3       0       6      15       9
       3       9     -18      12      37       3       9      30      33      33
       3       9      30      36      33       0      75      69      63       2
       0      75      72      66       2       0       3       9      18      37
       0       3       9      30      37       0       6      12      21       9
       0       6     -12      18       9       0       6      15      24      35
      54      84     -90     -87      41      81      90     -87     -93      41
      54      63     -60     -66      40      90      60     -54     -57      41
      33      48     -39     -45      41      33      36     -30      -9      40
      27      12     -21     -24      40       6      21     -12     -18      41
       3      18      -9     -30      40       0      12      -6     -15      40
       3       0      -6     -75      41
%FLAG EXCLUDED_ATOMS_LIST
%FORMAT(10I8)
       2       3       4       5       6       7       8       9      11      22
      23      24      25      26      34      52      53      54      55      56
       3       4       5       6       7      11      12      13      24      25
      26      56       4       5       6       7       8       9      10      24
      25      26      34      35      56       5       7       8      11      12
      13      14      15      26      39      40      41      42       6       7
       8       9      10      11      26      34      35      36      37      38
       7       8       9      10      26      34      35       8       9      10
      11      12      13       9      10      34      35      36      37      38
      10      34      35      36      37      38      35      36      37      38
      12      13      14      15      16      17      18      39      40      41
      42      43      44      13      14      15      16      17      18      39
      40      41      42      45      14      15      17      18      39      40
      41      42      43      44      46      47      15      16      17      18
      39      40      45      46      47      17      18      41      42      43
      44      45      46      47      17      18      39      40      45      18
      39      40      43      44      45      46      47      41      42      43
      44      45      46      47      20      21      22      23      24      25
      27      28      29      30      31      32      48      49      50      51
      58      21      22      23      29      30      31      22      23      24
      25      26      29      30      31      48      49      50      51      52
      53      54      55      23      24      25      26      31      48      49
      50      51      52      53      56      24      25      26      31      48
      49      50      51      54      55      56      25      26      48      49
      52      53      54      55      56      26      50      51      52      53
      54      55      56      48      49      50      51      52      53      54
      55      56      28      29      30      31      32      57      58      29
      30      31      32      33      57      58      30      31      32      57
      58      31      32      33      57      58      59      60      61      32
      33      57      58      33      57      59      60      61      59      60
      61      35       0      37      38      38       0      40       0      42
      43      44      43      44      44      46      47      46      47      46
      47      47       0      49      52      53      52      53      51      54
      55      54      55      53      56      56      55      56      56       0
       0       0      60      61      61       0
%FLAG HBOND_ACOEF
%FORMAT(5E16.8)

%FLAG HBOND_BCOEF
%FORMAT(5E16.8)

%FLAG HBCUT
%FORMAT(5E16.8)

%FLAG AMBER_ATOM_TYPE
%FORMAT(20a4)
ca  nb  ca  ca  ca  cc  nb  na  cd  c3  nh  c3  c3  c   c3  o   ns  c3  c   o   
n   c6  c6  c6  c6  c6  ss  cc  cc  cd  cd  os  c3  ha  h4  h1  h1  h1  h1  h1  
h1  h1  hc  hc  hn  h1  h1  h1  h1  h1  h1  hc  hc  hc  hc  hc  h4  h4  h1  h1  
h1  
%FLAG TREE_CHAIN_CLASSIFICATION
%FORMAT(20a4)
BLA BLA BLA BLA BLA BLA BLA BLA BLA BLA BLA BLA BLA BLA BLA BLA BLA BLA BLA BLA 
BLA BLA BLA BLA BLA BLA BLA BLA BLA BLA BLA BLA BLA BLA BLA BLA BLA BLA BLA BLA 
BLA BLA BLA BLA BLA BLA BLA BLA BLA BLA BLA BLA BLA BLA BLA BLA BLA BLA BLA BLA 
BLA 
%FLAG JOIN_ARRAY
%FORMAT(10I8)
       0       0       0       0       0       0       0       0       0       0
       0       0       0       0       0       0       0       0       0       0
       0       0       0       0       0       0       0       0       0       0
       0       0       0       0       0       0       0       0       0       0
       0       0       0       0       0       0       0       0       0       0
       0       0       0       0       0       0       0       0       0       0
       0
%FLAG IROTAT
%FORMAT(10I8)
       0       0       0       0       0       0       0       0       0       0
       0       0       0       0       0       0       0       0       0       0
       0       0       0       0       0       0       0       0       0       0
       0       0       0       0       0       0       0       0       0       0
       0       0       0       0       0       0       0       0       0       0
       0       0       0       0       0       0       0       0       0       0
       0
%FLAG RADIUS_SET
%FORMAT(1a80)
H(N)-modified Bondi radii (mbondi2)                                             
%FLAG RADII
%FORMAT(5E16.8)
  1.70000000E+00  1.55000000E+00  1.70000000E+00  1.70000000E+00  1.70000000E+00
  1.70000000E+00  1.55000000E+00  1.55000000E+00  1.70000000E+00  1.70000000E+00
  1.55000000E+00  1.70000000E+00  1.70000000E+00  1.70000000E+00  1.70000000E+00
  1.50000000E+00  1.55000000E+00  1.70000000E+00  1.70000000E+00  1.50000000E+00
  1.55000000E+00  1.70000000E+00  1.70000000E+00  1.70000000E+00  1.70000000E+00
  1.70000000E+00  1.80000000E+00  1.70000000E+00  1.70000000E+00  1.70000000E+00
  1.70000000E+00  1.50000000E+00  1.70000000E+00  1.20000000E+00  1.20000000E+00
  1.20000000E+00  1.20000000E+00  1.20000000E+00  1.20000000E+00  1.20000000E+00
  1.20000000E+00  1.20000000E+00  1.20000000E+00  1.20000000E+00  1.30000000E+00
  1.20000000E+00  1.20000000E+00  1.20000000E+00  1.20000000E+00  1.20000000E+00
  1.20000000E+00  1.20000000E+00  1.20000000E+00  1.20000000E+00  1.20000000E+00
  1.20000000E+00  1.20000000E+00  1.20000000E+00  1.20000000E+00  1.20000000E+00
  1.20000000E+00
%FLAG SCREEN
%FORMAT(5E16.8)
  7.20000000E-01  7.90000000E-01  7.20000000E-01  7.20000000E-01  7.20000000E-01
  7.20000000E-01  7.90000000E-01  7.90000000E-01  7.20000000E-01  7.20000000E-01
  7.90000000E-01  7.20000000E-01  7.20000000E-01  7.20000000E-01  7.20000000E-01
  8.50000000E-01  7.90000000E-01  7.20000000E-01  7.20000000E-01  8.50000000E-01
  7.90000000E-01  7.20000000E-01  7.20000000E-01  7.20000000E-01  7.20000000E-01
  7.20000000E-01  9.60000000E-01  7.20000000E-01  7.20000000E-01  7.20000000E-01
  7.20000000E-01  8.50000000E-01  7.20000000E-01  8.50000000E-01  8.50000000E-01
  8.50000000E-01  8.50000000E-01  8.50000000E-01  8.50000000E-01  8.50000000E-01
  8.50000000E-01  8.50000000E-01  8.50000000E-01  8.50000000E-01  8.50000000E-01
  8.50000000E-01  8.50000000E-01  8.50000000E-01  8.50000000E-01  8.50000000E-01
  8.50000000E-01  8.50000000E-01  8.50000000E-01  8.50000000E-01  8.50000000E-01
  8.50000000E-01  8.50000000E-01  8.50000000E-01  8.50000000E-01  8.50000000E-01
  8.50000000E-01
%FLAG IPOL
%FORMAT(1I8)
       0
