%VERSION  VERSION_STAMP = V0001.000  DATE = 09/03/26  21:51:39
%FLAG TITLE
%FORMAT(20a4)
default_name
%FLAG POINTERS
%FORMAT(10I8)
      61      27      28      36      62      51      94      90       0       0
     321       1      36      51      90      30      62      36      52       0
       0       0       0       0       0       0       0       0      61       0
       0
%FLAG ATOM_NAME
%FORMAT(20a4)
C1  N1  C2  C3  C4  C5  C6  O1  C7  C8  N2  C9  C10 O2  C11 N3  C12 N4  C13 C14 
C15 C16 N5  C17 O3  C18 S1  C19 C20 C21 N6  C22 C23 H1  H2  H3  H4  H5  H6  H7  
H8  H9  H10 H11 H12 H13 H14 H15 H16 H17 H18 H19 H20 H21 H22 H23 H24 H25 H26 H27 
H28 
%FLAG CHARGE
%FORMAT(5E16.8)
  6.50171664E+00 -1.20631626E+01 -3.37659219E+00  6.82607358E+00 -1.93156380E+00
 -3.68637129E+00  1.25369424E+00 -7.50029868E+00  1.16622720E+00  2.12107572E+00
 -8.41505814E+00  9.47559600E-01  1.26954764E+01 -1.03338663E+01 -3.04130187E+00
  2.06640882E+00 -4.57926399E+00 -9.12572784E+00  5.94046980E-01  5.60517948E+00
 -1.92609711E+00 -1.71471843E+00 -1.00933320E+01  1.03976444E+01 -1.10263137E+01
  3.04859079E+00 -1.44502839E+00 -4.40432991E+00  7.26523101E+00  6.42518298E+00
 -1.14800490E+01 -2.39441022E+00 -2.32152102E+00  3.17068020E+00  2.67867810E+00
  3.00667950E+00  1.68920721E+00  1.54342881E+00  1.54342881E+00  1.11520476E+00
  1.11520476E+00  1.08787131E+00  1.08787131E+00  3.15245790E+00  1.18505084E+00
  1.18505084E+00  1.18505084E+00  1.06964901E+00  1.06964901E+00  6.99134984E-01
  6.99134984E-01  6.99134984E-01  6.02247015E+00  1.39765041E+00  1.39765041E+00
  1.08787131E+00  1.08787131E+00  1.08787131E+00  9.60315210E-01  9.60315210E-01
  9.60315210E-01
%FLAG ATOMIC_NUMBER
%FORMAT(10I8)
       6       7       6       6       6       6       6       8       6       6
       7       6       6       8       6       7       6       7       6       6
       6       6       7       6       8       6      16       6       6       6
       7       6       6       1       1       1       1       1       1       1
       1       1       1       1       1       1       1       1       1       1
       1       1       1       1       1       1       1       1       1       1
       1
%FLAG MASS
%FORMAT(5E16.8)
  1.20100000E+01  1.40100000E+01  1.20100000E+01  1.20100000E+01  1.20100000E+01
  1.20100000E+01  1.20100000E+01  1.60000000E+01  1.20100000E+01  1.20100000E+01
  1.40100000E+01  1.20100000E+01  1.20100000E+01  1.60000000E+01  1.20100000E+01
  1.40100000E+01  1.20100000E+01  1.40100000E+01  1.20100000E+01  1.20100000E+01
  1.20100000E+01  1.20100000E+01  1.40100000E+01  1.20100000E+01  1.60000000E+01
  1.20100000E+01  3.20600000E+01  1.20100000E+01  1.20100000E+01  1.20100000E+01
  1.40100000E+01  1.20100000E+01  1.20100000E+01  1.00800000E+00  1.00800000E+00
  1.00800000E+00  1.00800000E+00  1.00800000E+00  1.00800000E+00  1.00800000E+00
  1.00800000E+00  1.00800000E+00  1.00800000E+00  1.00800000E+00  1.00800000E+00
  1.00800000E+00  1.00800000E+00  1.00800000E+00  1.00800000E+00  1.00800000E+00
  1.00800000E+00  1.00800000E+00  1.00800000E+00  1.00800000E+00  1.00800000E+00
  1.00800000E+00  1.00800000E+00  1.00800000E+00  1.00800000E+00  1.00800000E+00
  1.00800000E+00
%FLAG ATOM_TYPE_INDEX
%FORMAT(10I8)
      15      16      15      15      15      15      17      18      17      17
      19      17      15      20      15      21      15      16      17      15
      17      17      22      15      20      17      23      15      15      15
      16      17      17      24      24      24      25      25      25      25
      25      25      25      24      25      25      25      26      26      26
      26      26      27      25      25      26      26      26      26      26
      26
%FLAG NUMBER_EXCLUDED_ATOMS
%FORMAT(10I8)
      13      13       9      13       6       7      12      11      11       8
      13       9      12       3      10       9       8      10       4       8
       7       5       9       7       2       9      11      11       7       8
       8       3       3       1       1       1       2       1       1       3
       2       1       1       1       2       1       1       4       3       2
       1       1       2       1       1       2       1       1       2       1
       1
%FLAG NONBONDED_PARM_INDEX
%FORMAT(10I8)
       1       2       4       7      11      16      22      29      37      46
      56      67      79      92     106     121     137     154     172     191
     211     232     254     277     301     326     352       2       3       5
       8      12      17      23      30      38      47      57      68      80
      93     107     122     138     155     173     192     212     233     255
     278     302     327     353       4       5       6       9      13      18
      24      31      39      48      58      69      81      94     108     123
     139     156     174     193     213     234     256     279     303     328
     354       7       8       9      10      14      19      25      32      40
      49      59      70      82      95     109     124     140     157     175
     194     214     235     257     280     304     329     355      11      12
      13      14      15      20      26      33      41      50      60      71
      83      96     110     125     141     158     176     195     215     236
     258     281     305     330     356      16      17      18      19      20
      21      27      34      42      51      61      72      84      97     111
     126     142     159     177     196     216     237     259     282     306
     331     357      22      23      24      25      26      27      28      35
      43      52      62      73      85      98     112     127     143     160
     178     197     217     238     260     283     307     332     358      29
      30      31      32      33      34      35      36      44      53      63
      74      86      99     113     128     144     161     179     198     218
     239     261     284     308     333     359      37      38      39      40
      41      42      43      44      45      54      64      75      87     100
     114     129     145     162     180     199     219     240     262     285
     309     334     360      46      47      48      49      50      51      52
      53      54      55      65      76      88     101     115     130     146
     163     181     200     220     241     263     286     310     335     361
      56      57      58      59      60      61      62      63      64      65
      66      77      89     102     116     131     147     164     182     201
     221     242     264     287     311     336     362      67      68      69
      70      71      72      73      74      75      76      77      78      90
     103     117     132     148     165     183     202     222     243     265
     288     312     337     363      79      80      81      82      83      84
      85      86      87      88      89      90      91     104     118     133
     149     166     184     203     223     244     266     289     313     338
     364      92      93      94      95      96      97      98      99     100
     101     102     103     104     105     119     134     150     167     185
     204     224     245     267     290     314     339     365     106     107
     108     109     110     111     112     113     114     115     116     117
     118     119     120     135     151     168     186     205     225     246
     268     291     315     340     366     121     122     123     124     125
     126     127     128     129     130     131     132     133     134     135
     136     152     169     187     206     226     247     269     292     316
     341     367     137     138     139     140     141     142     143     144
     145     146     147     148     149     150     151     152     153     170
     188     207     227     248     270     293     317     342     368     154
     155     156     157     158     159     160     161     162     163     164
     165     166     167     168     169     170     171     189     208     228
     249     271     294     318     343     369     172     173     174     175
     176     177     178     179     180     181     182     183     184     185
     186     187     188     189     190     209     229     250     272     295
     319     344     370     191     192     193     194     195     196     197
     198     199     200     201     202     203     204     205     206     207
     208     209     210     230     251     273     296     320     345     371
     211     212     213     214     215     216     217     218     219     220
     221     222     223     224     225     226     227     228     229     230
     231     252     274     297     321     346     372     232     233     234
     235     236     237     238     239     240     241     242     243     244
     245     246     247     248     249     250     251     252     253     275
     298     322     347     373     254     255     256     257     258     259
     260     261     262     263     264     265     266     267     268     269
     270     271     272     273     274     275     276     299     323     348
     374     277     278     279     280     281     282     283     284     285
     286     287     288     289     290     291     292     293     294     295
     296     297     298     299     300     324     349     375     301     302
     303     304     305     306     307     308     309     310     311     312
     313     314     315     316     317     318     319     320     321     322
     323     324     325     350     376     326     327     328     329     330
     331     332     333     334     335     336     337     338     339     340
     341     342     343     344     345     346     347     348     349     350
     351     377     352     353     354     355     356     357     358     359
     360     361     362     363     364     365     366     367     368     369
     370     371     372     373     374     375     376     377     378
%FLAG RESIDUE_LABEL
%FORMAT(20a4)
LIG 
%FLAG RESIDUE_POINTER
%FORMAT(10I8)
       1
%FLAG BOND_FORCE_CONSTANT
%FORMAT(5E16.8)
  3.45250000E+02  2.53870000E+02  3.45930000E+02  4.19720000E+02  2.55140000E+02
  3.86240000E+02  2.31660000E+02  3.44220000E+02  5.90600000E+02  2.61660000E+02
  3.36070000E+02  4.73590000E+02  2.28890000E+02  4.17790000E+02  3.21490000E+02
  3.64600000E+02  2.90410000E+02  2.54790000E+02  3.35500000E+02  2.81780000E+02
  3.42020000E+02  3.17460000E+02  2.52360000E+02  2.26810000E+02  2.79780000E+02
  3.60690000E+02  3.54250000E+02  2.39730000E+02  3.86490000E+02  2.62840000E+02
%FLAG BOND_EQUIL_VALUE
%FORMAT(5E16.8)
  1.09620000E+00  1.50180000E+00  1.37130000E+00  1.31580000E+00  1.50020000E+00
  1.37300000E+00  1.75380000E+00  1.09690000E+00  1.21900000E+00  1.45560000E+00
  1.37980000E+00  1.01320000E+00  1.53540000E+00  1.31710000E+00  1.42790000E+00
  1.08350000E+00  1.35700000E+00  1.46390000E+00  1.38030000E+00  1.46870000E+00
  1.09840000E+00  1.39670000E+00  1.46690000E+00  1.53840000E+00  1.43000000E+00
  1.08600000E+00  1.39860000E+00  1.52030000E+00  1.33920000E+00  1.49070000E+00
%FLAG ANGLE_FORCE_CONSTANT
%FORMAT(5E16.8)
  3.58000000E+01  3.56400000E+01  3.57700000E+01  6.55300000E+01  6.53000000E+01
  4.39500000E+01  8.73500000E+01  4.40400000E+01  1.02140000E+02  6.00600000E+01
  7.14500000E+01  4.42100000E+01  6.66200000E+01  6.97400000E+01  6.24600000E+01
  5.98600000E+01  5.46200000E+01  7.69000000E+01  5.73700000E+01  6.59900000E+01
  4.83900000E+01  8.72100000E+01  4.32700000E+01  4.38000000E+01  6.05100000E+01
  8.25400000E+01  6.65100000E+01  5.93800000E+01  6.84600000E+01  7.28100000E+01
  9.39000000E+01  4.81000000E+01  8.73600000E+01  7.52100000E+01  6.45700000E+01
  4.52500000E+01  7.83600000E+01  6.42400000E+01  6.22000000E+01  4.32800000E+01
  7.66300000E+01  4.80600000E+01  8.66800000E+01  6.80100000E+01  6.52900000E+01
  7.69600000E+01  7.64200000E+01  5.66800000E+01  8.82800000E+01  6.06600000E+01
  4.49000000E+01  6.36700000E+01  7.75000000E+01  6.02800000E+01  4.38000000E+01
  6.14400000E+01  6.70900000E+01  6.81700000E+01  6.68100000E+01  6.70600000E+01
  7.79600000E+01  8.31500000E+01
%FLAG ANGLE_EQUIL_VALUE
%FORMAT(5E16.8)
  1.88024401E+00  1.89455572E+00  1.87622975E+00  2.16194027E+00  2.10992944E+00
  1.93068405E+00  1.83905422E+00  1.92614619E+00  1.57708019E+00  2.21098404E+00
  1.94743921E+00  1.91131088E+00  1.94691562E+00  2.03226225E+00  2.11795796E+00
  2.22896094E+00  2.04936649E+00  2.12860447E+00  2.04657396E+00  1.96663784E+00
  1.89350852E+00  2.14762857E+00  1.91427794E+00  2.12668460E+00  1.96646331E+00
  2.09771213E+00  2.09387240E+00  2.19038915E+00  2.10661331E+00  1.86313978E+00
  1.81217614E+00  1.89822091E+00  1.99962458E+00  2.21046045E+00  2.02824799E+00
  2.12406661E+00  2.16525640E+00  2.22704108E+00  2.11743436E+00  1.90555129E+00
  2.10259905E+00  1.89403212E+00  2.13925098E+00  1.96681238E+00  1.94028336E+00
  1.99089793E+00  1.92143380E+00  1.88635266E+00  1.97745889E+00  2.10486798E+00
  2.09230160E+00  2.09474507E+00  1.89438118E+00  1.95424600E+00  1.90118797E+00
  2.10015559E+00  2.05390434E+00  2.14570870E+00  2.01917228E+00  2.00870030E+00
  2.13977458E+00  2.04622489E+00
%FLAG DIHEDRAL_FORCE_CONSTANT
%FORMAT(5E16.8)
  0.00000000E+00  1.55555556E-01  2.50000000E+00  2.00000000E+00  0.00000000E+00
  2.50000000E-01  0.00000000E+00  3.62500000E+00  1.20000000E-01  4.75000000E+00
  1.26000000E+00  0.00000000E+00  1.65000000E+00  1.10000000E+00  4.00000000E+00
  4.80000000E+00  1.70000000E+00  2.87500000E+00  3.37000000E-01  1.02000000E+00
  1.70000000E-01  1.00000000E-01  3.50000000E-01  1.38000000E+00  1.16000000E+00
  2.40000000E-01  3.83333333E-01  2.10000000E-01  2.12250000E+00  5.80000000E-01
  1.00000000E+00  3.00000000E+00  2.00000000E+00  5.00000000E-01  1.10000000E+00
  1.05000000E+01
%FLAG DIHEDRAL_PERIODICITY
%FORMAT(5E16.8)
  2.00000000E+00  3.00000000E+00  2.00000000E+00  1.00000000E+00  1.00000000E+00
  1.00000000E+00  3.00000000E+00  2.00000000E+00  3.00000000E+00  2.00000000E+00
  1.00000000E+00  2.00000000E+00  2.00000000E+00  2.00000000E+00  2.00000000E+00
  2.00000000E+00  2.00000000E+00  2.00000000E+00  3.00000000E+00  1.00000000E+00
  3.00000000E+00  4.00000000E+00  1.00000000E+00  2.00000000E+00  3.00000000E+00
  2.00000000E+00  3.00000000E+00  3.00000000E+00  2.00000000E+00  2.00000000E+00
  2.00000000E+00  1.00000000E+00  2.00000000E+00  3.00000000E+00  2.00000000E+00
  2.00000000E+00
%FLAG DIHEDRAL_PHASE
%FORMAT(5E16.8)
  0.00000000E+00  0.00000000E+00  3.14159400E+00  0.00000000E+00  0.00000000E+00
  0.00000000E+00  0.00000000E+00  3.14159400E+00  0.00000000E+00  3.14159400E+00
  3.14159400E+00  3.14159400E+00  3.14159400E+00  3.14159400E+00  3.14159400E+00
  3.14159400E+00  3.14159400E+00  3.14159400E+00  0.00000000E+00  3.14159400E+00
  0.00000000E+00  3.14159400E+00  3.14159400E+00  0.00000000E+00  0.00000000E+00
  3.14159400E+00  0.00000000E+00  0.00000000E+00  3.14159400E+00  3.14159400E+00
  3.14159400E+00  3.14159400E+00  3.14159400E+00  0.00000000E+00  3.14159400E+00
  3.14159400E+00
%FLAG SCEE_SCALE_FACTOR
%FORMAT(5E16.8)
  1.20000000E+00  1.20000000E+00  1.20000000E+00  1.20000000E+00  1.20000000E+00
  1.20000000E+00  1.20000000E+00  1.20000000E+00  1.20000000E+00  1.20000000E+00
  1.20000000E+00  1.20000000E+00  1.20000000E+00  1.20000000E+00  1.20000000E+00
  1.20000000E+00  1.20000000E+00  1.20000000E+00  1.20000000E+00  1.20000000E+00
  1.20000000E+00  1.20000000E+00  1.20000000E+00  1.20000000E+00  1.20000000E+00
  1.20000000E+00  1.20000000E+00  1.20000000E+00  1.20000000E+00  1.20000000E+00
  1.20000000E+00  1.20000000E+00  1.20000000E+00  1.20000000E+00  0.00000000E+00
  0.00000000E+00
%FLAG SCNB_SCALE_FACTOR
%FORMAT(5E16.8)
  2.00000000E+00  2.00000000E+00  2.00000000E+00  2.00000000E+00  2.00000000E+00
  2.00000000E+00  2.00000000E+00  2.00000000E+00  2.00000000E+00  2.00000000E+00
  2.00000000E+00  2.00000000E+00  2.00000000E+00  2.00000000E+00  2.00000000E+00
  2.00000000E+00  2.00000000E+00  2.00000000E+00  2.00000000E+00  2.00000000E+00
  2.00000000E+00  2.00000000E+00  2.00000000E+00  2.00000000E+00  2.00000000E+00
  2.00000000E+00  2.00000000E+00  2.00000000E+00  2.00000000E+00  2.00000000E+00
  2.00000000E+00  2.00000000E+00  2.00000000E+00  2.00000000E+00  0.00000000E+00
  0.00000000E+00
%FLAG SOLTY
%FORMAT(5E16.8)
  0.00000000E+00  0.00000000E+00  0.00000000E+00  0.00000000E+00  0.00000000E+00
  0.00000000E+00  0.00000000E+00  0.00000000E+00  0.00000000E+00  0.00000000E+00
  0.00000000E+00  0.00000000E+00  0.00000000E+00  0.00000000E+00  0.00000000E+00
  0.00000000E+00  0.00000000E+00  0.00000000E+00  0.00000000E+00  0.00000000E+00
  0.00000000E+00  0.00000000E+00  0.00000000E+00  0.00000000E+00  0.00000000E+00
  0.00000000E+00  0.00000000E+00  0.00000000E+00  0.00000000E+00  0.00000000E+00
  0.00000000E+00  0.00000000E+00  0.00000000E+00  0.00000000E+00  0.00000000E+00
  0.00000000E+00  0.00000000E+00  0.00000000E+00  0.00000000E+00  0.00000000E+00
  0.00000000E+00  0.00000000E+00  0.00000000E+00  0.00000000E+00  0.00000000E+00
  0.00000000E+00  0.00000000E+00  0.00000000E+00  0.00000000E+00  0.00000000E+00
  0.00000000E+00  0.00000000E+00
%FLAG LENNARD_JONES_ACOEF
%FORMAT(5E16.8)
  9.44293233E+05  2.12601181E+03  1.39982777E-01  9.95480466E+05  2.56678134E+03
  1.04308023E+06  2.01791425E+04  9.14716912E+00  2.27401052E+04  2.01823541E+02
  8.96776989E+04  1.07193646E+02  9.71708117E+04  1.41077189E+03  7.51607703E+03
  8.82619071E+05  2.27577561E+03  9.24822270E+05  2.01619733E+04  8.61541883E+04
  8.19971662E+05  7.91627154E+04  8.90987508E+01  8.59947003E+04  1.21014911E+03
  6.55825601E+03  7.62451550E+04  5.71629601E+03  6.06829342E+05  1.02595236E+03
  6.47841731E+05  1.12780457E+04  5.44261042E+04  5.74393458E+05  4.77908183E+04
  3.79876399E+05  6.20665997E+04  5.94667300E+01  6.78771368E+04  8.79040886E+02
  4.98586848E+03  6.01816484E+04  4.33325458E+03  3.69471530E+04  3.25969625E+03
  7.44975864E+05  1.40467023E+03  7.91544157E+05  1.45985502E+04  6.82786631E+04
  7.01803794E+05  6.00750218E+04  4.71003287E+05  4.66922514E+04  5.81803229E+05
  0.00000000E+00  0.00000000E+00  0.00000000E+00  0.00000000E+00  0.00000000E+00
  0.00000000E+00  0.00000000E+00  0.00000000E+00  0.00000000E+00  0.00000000E+00
  0.00000000E+00  5.46147253E+04  4.90239937E+01  5.98885646E+04  7.50063100E+02
  4.33325458E+03  5.30987710E+04  3.76169105E+03  3.23283631E+04  2.82099197E+03
  4.09427581E+04  0.00000000E+00  2.43828624E+03  6.58473870E+04  6.63368273E+01
  7.18621074E+04  9.55000044E+02  5.34045360E+03  6.37148278E+04  4.64559155E+03
  3.93690817E+04  3.50301067E+03  4.96707306E+04  0.00000000E+00  3.03448006E+03
  3.76169105E+03  2.01562190E+06  5.97860700E+03  2.09861767E+06  4.93469320E+04
  2.02461849E+05  1.86068943E+06  1.79647996E+05  1.32911052E+06  1.42791446E+05
  1.61587928E+06  0.00000000E+00  1.26338489E+05  1.50848032E+05  4.19430400E+06
  8.11497350E+05  1.94008400E+03  8.53193737E+05  1.78601506E+04  7.80065389E+04
  7.56463928E+05  6.89371259E+04  5.24402060E+05  5.42099106E+04  6.42430744E+05
  0.00000000E+00  4.77581094E+04  5.74592031E+04  1.72268611E+06  6.96551276E+05
  8.97750460E+05  2.28331226E+03  9.41257953E+05  2.03696482E+04  8.73875986E+04
  8.34543970E+05  7.73168790E+04  5.83493927E+05  6.09861363E+04  7.13267446E+05
  0.00000000E+00  5.37939286E+04  6.45801516E+04  1.89497992E+06  7.69642101E+05
  8.49322032E+05  9.84684600E+05  2.53456440E+03  1.03184851E+06  2.24743442E+04
  9.60832554E+04  9.14863930E+05  8.50294791E+04  6.40712560E+05  6.71095195E+04
  7.82881336E+05  0.00000000E+00  5.92092559E+04  7.10513128E+04  2.07618920E+06
  8.43969952E+05  9.31115275E+05  1.02073671E+06  5.18220260E+05  1.06722540E+03
  5.48478208E+05  1.06013455E+04  4.83404799E+04  4.86295154E+05  4.26018274E+04
  3.30296908E+05  3.32551339E+04  4.06752008E+05  0.00000000E+00  2.92109361E+04
  3.53289728E+04  1.11514486E+06  4.46121722E+05  4.94433451E+05  5.42502534E+05
  2.83662575E+05  8.14793385E+05  1.71845864E+03  8.61458248E+05  1.68636880E+04
  7.63694318E+04  7.63791460E+05  6.73331169E+04  5.20462539E+05  5.26221036E+04
  6.40405042E+05  0.00000000E+00  4.62444096E+04  5.58833643E+04  1.74955513E+06
  7.01106848E+05  7.76656876E+05  8.52084164E+05  4.46307018E+05  7.02078680E+05
  5.99897901E+05  1.11043914E+03  6.37913494E+05  1.16505362E+04  5.47803235E+04
  5.65590822E+05  4.81820985E+04  3.78641356E+05  3.74148715E+04  4.68011805E+05
  0.00000000E+00  3.27958584E+04  3.98127143E+04  1.30335373E+06  5.17507491E+05
  5.74782316E+05  6.30925504E+05  3.27367585E+05  5.15491878E+05  3.76435470E+05
  9.53586341E+05  2.05956322E+03  1.00713741E+06  1.99671374E+04  8.98060491E+04
  8.92954421E+05  7.92148074E+04  6.10454299E+05  6.19803600E+04  7.50514003E+05
  0.00000000E+00  5.44940453E+04  6.57976999E+04  2.04316647E+06  8.20152428E+05
  9.08092643E+05  9.96191545E+05  5.22690526E+05  8.22085792E+05  6.04208667E+05
  9.62429652E+05  8.14127222E+05  1.86723722E+03  8.57549298E+05  1.75564320E+04
  7.76056179E+04  7.60325682E+05  6.85297634E+04  5.24079334E+05  5.37791327E+04
  6.42970500E+05  0.00000000E+00  4.73396390E+04  5.70388968E+04  1.73484330E+06
  6.99381362E+05  7.73425391E+05  8.48258258E+05  4.47026838E+05  7.02755693E+05
  5.17814271E+05  8.22346035E+05  7.01825028E+05  2.02752779E+06  5.85957523E+03
  2.11351845E+06  4.90026081E+04  2.02574546E+05  1.87390085E+06  1.79659945E+05
  1.33368524E+06  1.42615819E+05  1.62294350E+06  0.00000000E+00  1.26117560E+05
  1.50723105E+05  4.22933186E+06  1.73376823E+06  1.90820499E+06  2.09089895E+06
  1.12086734E+06  1.75889445E+06  1.30884564E+06  2.05449504E+06  1.74537186E+06
  4.26366419E+06  8.64679274E+04  1.00417924E+02  9.38067954E+04  1.34169202E+03
  7.20681791E+03  8.31715633E+04  6.28513799E+03  5.23449021E+04  4.77162373E+03
  6.57310418E+04  0.00000000E+00  4.14474284E+03  5.11317150E+03  1.95699890E+05
  7.52549148E+04  8.43518904E+04  9.27554496E+04  4.65732396E+04  7.35931098E+04
  5.27277400E+04  8.65595848E+04  7.48403283E+04  1.95762765E+05  6.90855956E+03
  6.43853349E+04  5.78352684E+01  7.06006146E+04  8.84544347E+02  5.10916075E+03
  6.25963552E+04  4.43530964E+03  3.81142515E+04  3.32626784E+03  4.82692694E+04
  0.00000000E+00  2.87505342E+03  3.57795711E+03  1.48931701E+05  5.63013422E+04
  6.34160397E+04  6.97998263E+04  3.44374471E+04  5.45183252E+04  3.86646725E+04
  6.42436358E+04  5.58085097E+04  1.48672098E+05  4.88692384E+03  3.39005767E+03
  9.33217616E+04  1.05103439E+02  1.01372942E+05  1.42703904E+03  7.73223568E+03
  8.98799076E+04  6.73963720E+03  5.63419090E+04  5.10916075E+03  7.08225575E+04
  0.00000000E+00  4.43530964E+03  5.47737117E+03  2.11768029E+05  8.12662403E+04
  9.11435380E+04  1.00235148E+05  5.02224902E+04  7.93773615E+04  5.68021765E+04
  9.33839501E+04  8.07866982E+04  2.11783234E+05  7.41026906E+03  5.22955465E+03
  7.94617769E+03  1.88178855E+03  1.37574453E-01  2.26409483E+03  8.45902425E+00
  9.64710720E+01  2.00740581E+03  8.03166617E+01  9.14858779E+02  5.38411501E+01
  1.24900897E+03  0.00000000E+00  4.44659845E+01  5.99788431E+01  5.25501858E+03
  1.71458823E+03  2.01475241E+03  2.23577481E+03  9.46795083E+02  1.52360475E+03
  9.87857350E+02  1.82491629E+03  1.65195713E+03  5.15374979E+03  9.04434904E+01
  5.24570081E+01  9.47421632E+01  1.34728399E-01
%FLAG LENNARD_JONES_BCOEF
%FORMAT(5E16.8)
  8.01323529E+02  2.09604198E+01  9.37598976E-02  7.36907417E+02  2.06278363E+01
  6.75612247E+02  6.45756063E+01  7.57919667E-01  6.13981767E+01  3.56012899E+00
  1.36131731E+02  2.59456373E+00  1.26919150E+02  9.41257003E+00  2.17257828E+01
  6.53361429E+02  1.82891803E+01  5.99015525E+02  5.44372326E+01  1.12529845E+02
  5.31102864E+02  1.26451907E+02  2.33864085E+00  1.18043746E+02  8.61880722E+00
  2.00642027E+01  1.04660679E+02  1.85196588E+01  6.77220874E+02  1.53505284E+01
  6.26720080E+02  5.08951803E+01  1.11805549E+02  5.55666448E+02  1.03580945E+02
  5.64885984E+02  1.13252061E+02  1.93248820E+00  1.06076943E+02  7.42992380E+00
  1.76949863E+01  9.40505980E+01  1.63092814E+01  9.21192136E+01  1.43076527E+01
  7.50714425E+02  1.79702257E+01  6.93079947E+02  5.79323581E+01  1.25287818E+02
  6.14502845E+02  1.16187983E+02  6.29300710E+02  1.03606917E+02  6.99746810E+02
  0.00000000E+00  0.00000000E+00  0.00000000E+00  0.00000000E+00  0.00000000E+00
  0.00000000E+00  0.00000000E+00  0.00000000E+00  0.00000000E+00  0.00000000E+00
  0.00000000E+00  1.05031585E+02  1.73473071E+00  9.85097219E+01  6.78541827E+00
  1.63092814E+01  8.73413012E+01  1.50233639E+01  8.51921330E+01  1.31591746E+01
  9.59185913E+01  0.00000000E+00  1.20953369E+01  1.15327881E+02  2.01792524E+00
  1.07908863E+02  7.65648470E+00  1.81057616E+01  9.56748258E+01  1.66953734E+01
  9.40124296E+01  1.46638650E+01  1.05648788E+02  0.00000000E+00  1.34932874E+01
  1.50233639E+01  1.28923404E+03  3.87070358E+01  1.17824605E+03  1.11203892E+02
  2.25248294E+02  1.04466382E+03  2.09772716E+02  1.10369829E+03  1.89165096E+02
  1.21753341E+03  0.00000000E+00  1.75916126E+02  1.92224012E+02  2.04800000E+03
  6.48597119E+02  1.74825352E+01  5.95658566E+02  5.30440533E+01  1.10856114E+02
  5.28126496E+02  1.03031170E+02  5.49675335E+02  9.24130897E+01  6.08686716E+02
  0.00000000E+00  8.57562161E+01  9.40636541E+01  1.04065628E+03  5.24668528E+02
  6.73934129E+02  1.87363491E+01  6.18067719E+02  5.59621097E+01  1.15911684E+02
  5.47995038E+02  1.07792209E+02  5.72796552E+02  9.68317709E+01  6.33599808E+02
  0.00000000E+00  8.99118321E+01  9.85144068E+01  1.07823819E+03  5.44830041E+02
  5.65406768E+02  7.30206155E+02  2.04226110E+01  6.69494459E+02  6.08139360E+01
  1.25742895E+02  5.93591333E+02  1.16947855E+02  6.20970728E+02  1.05087646E+02
  6.86742760E+02  0.00000000E+00  9.75893223E+01  1.06903901E+02  1.16762437E+03
  5.90251928E+02  6.12468585E+02  6.63431737E+02  4.79881022E+02  1.20051375E+01
  4.42179058E+02  3.78372494E+01  8.07968711E+01  3.92047541E+02  7.49896074E+01
  4.03897559E+02  6.70144433E+01  4.48425641E+02  0.00000000E+00  6.20954392E+01
  6.82892701E+01  7.75201844E+02  3.88758656E+02  4.04310927E+02  4.38146883E+02
  2.87011518E+02  7.37244936E+02  1.86646683E+01  6.78964813E+02  5.84691813E+01
  1.24425821E+02  6.01987997E+02  1.15508247E+02  6.21191325E+02  1.03284425E+02
  6.89389438E+02  0.00000000E+00  9.57256348E+01  1.05230082E+02  1.18966487E+03
  5.97113873E+02  6.20851625E+02  6.72777963E+02  4.41089616E+02  6.77820248E+02
  6.15165511E+02  1.45902714E+01  5.68167388E+02  4.72594809E+01  1.02477444E+02
  5.03752097E+02  9.50181887E+01  5.15240418E+02  8.46911674E+01  5.73100668E+02
  0.00000000E+00  7.83922976E+01  8.63723599E+01  9.98521059E+02  4.98871431E+02
  5.19385932E+02  5.62969425E+02  3.67361018E+02  5.64804067E+02  4.69350655E+02
  8.43016687E+02  2.15976454E+01  7.75965878E+02  6.72475934E+01  1.42617112E+02
  6.87991684E+02  1.32424984E+02  7.11091246E+02  1.18480231E+02  7.88832443E+02
  0.00000000E+00  1.09835130E+02  1.20690226E+02  1.35887907E+03  6.82622272E+02
  7.09588248E+02  7.68900328E+02  5.04545572E+02  7.75261695E+02  6.46321327E+02
  8.86629877E+02  6.78274341E+02  1.79069525E+01  6.23492018E+02  5.49085611E+01
  1.15443242E+02  5.52804364E+02  1.07253000E+02  5.73720490E+02  9.61012043E+01
  6.35775777E+02  0.00000000E+00  8.91419860E+01  9.78487751E+01  1.09034051E+03
  5.48900066E+02  5.70234696E+02  6.17825399E+02  4.06301077E+02  6.24158704E+02
  5.21008860E+02  7.13654906E+02  5.74088001E+02  1.33303578E+03  3.95051895E+01
  1.21899948E+03  1.14243284E+02  2.32280910E+02  1.08079689E+03  2.16269171E+02
  1.13979741E+03  1.94896900E+02  1.25793819E+03  0.00000000E+00  1.81199404E+02
  1.98088334E+02  2.12015227E+03  1.07629402E+03  1.11546536E+03  1.20800124E+03
  8.01230425E+02  1.22973599E+03  1.03157656E+03  1.40479403E+03  1.12747567E+03
  2.19459223E+03  1.34516705E+02  2.52706841E+00  1.25489661E+02  9.23714573E+00
  2.14083478E+01  1.11262422E+02  1.97659043E+01  1.10338858E+02  1.74198525E+01
  1.23703833E+02  0.00000000E+00  1.60512210E+01  1.78280753E+01  2.22852114E+02
  1.09570372E+02  1.14599119E+02  1.24325688E+02  7.98066064E+01  1.22913863E+02
  1.01173582E+02  1.40899023E+02  1.14083104E+02  2.29782888E+02  2.10929191E+01
  1.23751804E+02  2.04464126E+00  1.16065835E+02  7.99614292E+00  1.92174397E+01
  1.02907011E+02  1.77023375E+01  1.00379343E+02  1.55059847E+01  1.13016701E+02
  0.00000000E+00  1.42525182E+01  1.58996004E+01  2.07264254E+02  1.01040256E+02
  1.05935811E+02  1.14981426E+02  7.31636661E+01  1.12788003E+02  9.23664132E+01
  1.29412081E+02  1.05029928E+02  2.13489607E+02  1.89134207E+01  1.67944276E+01
  1.48987394E+02  2.75631727E+00  1.39078880E+02  1.01563736E+01  2.36414051E+01
  1.23310980E+02  2.18216157E+01  1.22044000E+02  1.92174397E+01  1.36896727E+02
  0.00000000E+00  1.77023375E+01  1.96722815E+01  2.47150236E+02  1.21392023E+02
  1.27000718E+02  1.37787728E+02  8.83545880E+01  1.36094315E+02  1.11953944E+02
  1.56025608E+02  1.26366740E+02  2.54804909E+02  2.32899892E+01  2.08590256E+01
  2.57122925E+01  1.76168249E+01  8.30374121E-02  1.73073921E+01  6.51126010E-01
  2.19888978E+00  1.53451874E+01  1.98360701E+00  1.29497639E+01  1.64271443E+00
  1.51381989E+01  0.00000000E+00  1.47593342E+00  1.71416196E+00  3.24191875E+01
  1.46824710E+01  1.57231024E+01  1.71355763E+01  1.01016461E+01  1.57004457E+01
  1.22938581E+01  1.81620725E+01  1.50468782E+01  3.30984635E+01  2.14252117E+00
  1.73959275E+00  2.33785449E+00  7.34107347E-02
%FLAG BONDS_INC_HYDROGEN
%FORMAT(10I8)
      96     174       1      96     177       1      96     180       1      93
     165       1      93     168       1      93     171       1      75     159
       8      75     162       8      66     156      12      63     147       1
      63     150       1      63     153       1      60     141       1      60
     144       1      54     132       8      54     135       8      54     138
       8      48     129      16      33     123      21      33     126      21
      27     117      21      27     120      21      24     111      21      24
     114      21      18     108      21      15     105      26      12     102
      26       6      99      26
%FLAG BONDS_WITHOUT_HYDROGEN
%FORMAT(10I8)
      87      96       2      87      90       3      84      90       4      84
      93       5      81      87       6      78      81       7      78      84
       7      75      81       5      69      72       9      66      75      10
      66      69      11      60      63      13      57      60       2      51
      57      14      48      57      15      45      51      17      45      54
      18      42      45      19      42      48       6      36      39       9
      36      42      20      30      36      22      30      33      23      27
      33      24      24      30      23      21      27      25      18      21
      25      18      24      24      12      15      27       9      15      27
       9      18      28       6      12      27       3       9      29       0
      69      30       0       3      29       0       6      27
%FLAG ANGLES_INC_HYDROGEN
%FORMAT(10I8)
     177      96     180       1     174      96     177       1     174      96
     180       1     168      93     171       1     165      93     168       1
     165      93     171       1     159      75     162       2     150      63
     153       1     147      63     150       1     147      63     153       1
     141      60     144       1     135      54     138       2     132      54
     135       2     132      54     138       2     123      33     126       3
     117      27     120       3     111      24     114       3      87      96
     174       6      87      96     177       6      87      96     180       6
      84      93     165       8      84      93     168       8      84      93
     171       8      81      75     159      12      81      75     162      12
      75      66     156      17      69      66     156      19      66      75
     159      21      66      75     162      21      63      60     141      23
      63      60     144      23      60      63     147      23      60      63
     150      23      60      63     153      23      57      48     129      24
      57      60     141       6      57      60     144       6      45      54
     132      32      45      54     135      32      45      54     138      32
      42      48     129      36      33      27     117      40      33      27
     120      40      30      24     111      42      30      24     114      42
      30      33     123      42      30      33     126      42      27      33
     123      40      27      33     126      40      24      18     108      40
      21      18     108      48      21      27     117      48      21      27
     120      48      18      24     111      40      18      24     114      40
      15      12     102      51      12       6      99      51      12      15
     105      51       9      15     105      51       9      18     108      55
       6      12     102      51       0       6      99      51
%FLAG ANGLES_WITHOUT_HYDROGEN
%FORMAT(10I8)
      90      84      93       4      90      87      96       5      84      90
      87       7      81      78      84       9      81      87      96      10
      81      87      90      11      78      81      87      13      78      84
      90      14      78      84      93      15      75      81      78      15
      75      81      87      16      69      66      75      18      66      75
      81      20      66      69      72      22      57      60      63      25
      51      45      54      26      51      57      60      27      48      57
      60      28      48      57      51      29      45      42      48      30
      45      51      57      31      42      45      51      33      42      45
      54      34      42      48      57      35      39      36      42      37
      36      42      45      38      36      42      48      39      33      30
      36      41      30      36      39      43      30      36      42      44
      27      33      30      45      24      30      36      41      24      30
      33      46      21      18      24      47      21      27      33      47
      18      21      27      49      18      24      30      45      15       9
      18      50       9      15      12      52       9      18      21      53
       9      18      24      54       6       0      69      56       6      12
      15      52       3       0      69      57       3       0       6      58
       3       9      15      58       3       9      18      59       0      69
      66      60       0      69      72      61       0       3       9      62
       0       6      12      52
%FLAG DIHEDRALS_INC_HYDROGEN
%FORMAT(10I8)
     156      66      75     159       1     156      66      75     162       1
     144      60      63     147       9     144      60      63     150       9
     144      60      63     153       9     141      60      63     147       9
     141      60      63     150       9     141      60      63     153       9
     120      27      33     123       2     120      27      33     126       2
     117      27      33     123       2     117      27      33     126       2
     108      18      24     111       2     108      18      24     114       2
     102      12      15     105       8      99       6      12     102       8
      90      84      93     165       7      90      84      93     168       7
      90      84      93     171       7      90      87      96     174       7
      90      87      96     177       7      90      87      96     180       7
      87      81      75     159       7      87      81      75     162       7
      81      87      96     174       7      81      87      96     177       7
      81      87      96     180       7      81      75      66     156       1
      78      81      75     159       7      78      81      75     162       7
      78      84      93     165       7      78      84      93     168       7
      78      84      93     171       7      72      69      66     156       4
      72      69     -66     156       3      69      66      75     159       5
      69      66      75     162       5      69       0       6      99       8
      60      57      48     129      15      57      60      63     147       2
      57      60      63     150       2      57      60      63     153       2
      51      45      54     132       1      51      45      54     135       1
      51      45      54     138       1      51      57      48     129      15
      51      57      60     141       7      51      57      60     144       7
      48      57      60     141       7      48      57      60     144       7
      45      42      48     129      15      42      45      54     132       1
      42      45      54     135       1      42      45      54     138       1
      36      30      24     111      12      36      30      24     114      12
      36      30      33     123      12      36      30      33     126      12
      36      42      48     129      15      33      30      24     111       1
      33      30      24     114       1      30      24      18     108       2
      30      33      27     117       2      30      33      27     120       2
      27      21      18     108      19      24      30      33     123       1
      24      30      33     126       1      21      18      24     111       6
      21      18     -24     111       7      21      18      24     114       6
      21      18     -24     114       7      21      27      33     123       6
      21      27     -33     123       7      21      27      33     126       6
      21      27     -33     126       7      18       9      15     105       8
      18      21      27     117      19      18      21      27     120      19
      15       9      18     108       1      15      12       6      99       8
       9      15      12     102       8       9      18      24     111       2
       9      18      24     114       2       6      12      15     105       8
       3       0       6      99       8       3       9      15     105       8
       3       9      18     108       1       0      69      66     156       3
       0       6      12     102       8      69      75     -66    -156      35
      42      57     -48    -129      36       9      12     -15    -105      35
       6      15     -12    -102      35       0      12      -6     -99      35
%FLAG DIHEDRALS_WITHOUT_HYDROGEN
%FORMAT(10I8)
      87      90      84      93      10      84      78     -81      87      11
      84      78     -81      87      12      84      78     -81      87       7
      84      90      87      96      10      81      78     -84      90      13
      81      78      84      93      14      81      87     -90      84      10
      78      81      87      96      15      78      81     -87      90      15
      78      84     -90      87      10      75      81      78      84      14
      75      81      87      96      15      75      81      87      90      15
      72      69      66      75       3      69      66      75      81       1
      66      75      81      78       7      66      75      81      87       7
      54      45      51      57      16      51      57      60      63       7
      48      42     -45      51      17      48      42      45      54      17
      48      57      60      63       7      45      42     -48      57      15
      45      51     -57      48      10      45      51      57      60      10
      42      45     -51      57      16      42      48      57      60      15
      42      48     -57      51      15      39      36      42      45      18
      39      36      42      48      18      36      42      45      51      17
      36      42      45      54      17      36      42      48      57      15
      33      30      36      39       3      33      30      36      42       3
      30      36      42      45      18      30      36      42      48      18
      27      33      30      36      20      27      33     -30      36      21
      27      33     -30      36      22      24      18      21      27      23
      24      18     -21      27      24      24      18     -21      27      25
      24      30      36      39       3      24      30      36      42       3
      24      30     -33      27       1      21      18      24      30       2
      21      27     -33      30       2      18      21      27      33      23
      18      21     -27      33      24      18      21     -27      33      25
      18      24      30      36      20      18      24     -30      36      21
      18      24     -30      36      22      18      24     -30      33       1
      15       9      18      21       1      15       9      18      24      26
      69       0       6      12       8      12      15       9      18       8
      69       0       3       9      16       9      18      21      27      27
       9      18      24      30      28       6       0      69      66      29
       6       0      69      72      30       6       0       3       9      16
       6      12     -15       9       8       3       0      69      66      31
       3       0      69      72      31       3       0       6      12       8
       3       9     -15      12       8       3       9      18      21       1
       3       9      18      24       1       0      69      66      75      32
       0      69     -66      75      33       0      69     -66      75      34
       0       3       9      15      16       0       3       9      18      16
       0       6     -12      15       8      96      81     -87     -90      36
      93      90     -84     -78      36      75      87     -81     -78      36
       0      66     -69     -72      36      60      48     -57     -51      36
      54      42     -45     -51      35      36      48     -42     -45      36
      42      30     -36     -39      36      36      24     -30     -33      35
      18      15      -9      -3      36       3       0      -6     -69      36
%FLAG EXCLUDED_ATOMS_LIST
%FORMAT(10I8)
       2       3       4       5       6       7      23      24      25      26
      34      35      53       3       4       5       6       7       8       9
      23      24      25      34      36      37       4       5       6      23
      24      25      34      35      36       5       6       7       8       9
      10      11      24      35      36      37      38      39       6       7
      24      34      35      36       7       8       9      34      35      36
      37       8       9      10      11      12      13      36      37      38
      39      40      41       9      10      11      12      37      38      39
      40      41      42      43      10      11      12      13      14      15
      37      38      39      42      43      11      12      13      37      40
      41      42      43      12      13      14      15      16      17      37
      38      39      40      41      42      43      13      14      15      38
      39      40      41      42      43      14      15      16      17      18
      19      20      38      39      42      43      44      15      16      17
      16      17      18      19      20      21      44      45      46      47
      17      18      19      20      21      44      45      46      47      18
      19      20      21      22      44      48      49      19      20      21
      22      44      45      46      47      48      49      20      45      46
      47      21      22      44      48      49      50      51      52      22
      44      48      49      50      51      52      48      49      50      51
      52      24      25      26      27      28      30      53      54      55
      25      26      28      34      53      54      55      26      53      27
      28      29      30      31      33      53      54      55      28      29
      30      31      32      33      54      55      56      57      58      29
      30      31      32      33      53      54      55      59      60      61
      30      31      32      33      56      57      58      31      32      33
      54      55      59      60      61      32      33      56      57      58
      59      60      61      56      57      58      59      60      61      35
      36       0      38      39      39       0      41      42      43      42
      43      43       0       0      46      47      47       0      49      50
      51      52      50      51      52      51      52      52       0      54
      55      55       0      57      58      58       0      60      61      61
       0
%FLAG HBOND_ACOEF
%FORMAT(5E16.8)

%FLAG HBOND_BCOEF
%FORMAT(5E16.8)

%FLAG HBCUT
%FORMAT(5E16.8)

%FLAG AMBER_ATOM_TYPE
%FORMAT(20a4)
ca  nb  ca  ca  ca  ca  c6  os  c6  c6  n   c6  c   o   cc  na  cd  nc  c3  cd  
c3  c3  ns  c   o   c3  ss  cc  cc  cd  nd  c3  c3  ha  ha  ha  h1  h1  h1  h1  
h1  h1  h1  ha  h1  h1  h1  hc  hc  hc  hc  hc  hn  h1  h1  hc  hc  hc  hc  hc  
hc  
%FLAG TREE_CHAIN_CLASSIFICATION
%FORMAT(20a4)
BLA BLA BLA BLA BLA BLA BLA BLA BLA BLA BLA BLA BLA BLA BLA BLA BLA BLA BLA BLA 
BLA BLA BLA BLA BLA BLA BLA BLA BLA BLA BLA BLA BLA BLA BLA BLA BLA BLA BLA BLA 
BLA BLA BLA BLA BLA BLA BLA BLA BLA BLA BLA BLA BLA BLA BLA BLA BLA BLA BLA BLA 
BLA 
%FLAG JOIN_ARRAY
%FORMAT(10I8)
       0       0       0       0       0       0       0       0       0       0
       0       0       0       0       0       0       0       0       0       0
       0       0       0       0       0       0       0       0       0       0
       0       0       0       0       0       0       0       0       0       0
       0       0       0       0       0       0       0       0       0       0
       0       0       0       0       0       0       0       0       0       0
       0
%FLAG IROTAT
%FORMAT(10I8)
       0       0       0       0       0       0       0       0       0       0
       0       0       0       0       0       0       0       0       0       0
       0       0       0       0       0       0       0       0       0       0
       0       0       0       0       0       0       0       0       0       0
       0       0       0       0       0       0       0       0       0       0
       0       0       0       0       0       0       0       0       0       0
       0
%FLAG RADIUS_SET
%FORMAT(1a80)
H(N)-modified Bondi radii (mbondi2)                                             
%FLAG RADII
%FORMAT(5E16.8)
  1.70000000E+00  1.55000000E+00  1.70000000E+00  1.70000000E+00  1.70000000E+00
  1.70000000E+00  1.70000000E+00  1.50000000E+00  1.70000000E+00  1.70000000E+00
  1.55000000E+00  1.70000000E+00  1.70000000E+00  1.50000000E+00  1.70000000E+00
  1.55000000E+00  1.70000000E+00  1.55000000E+00  1.70000000E+00  1.70000000E+00
  1.70000000E+00  1.70000000E+00  1.55000000E+00  1.70000000E+00  1.50000000E+00
  1.70000000E+00  1.80000000E+00  1.70000000E+00  1.70000000E+00  1.70000000E+00
  1.55000000E+00  1.70000000E+00  1.70000000E+00  1.20000000E+00  1.20000000E+00
  1.20000000E+00  1.20000000E+00  1.20000000E+00  1.20000000E+00  1.20000000E+00
  1.20000000E+00  1.20000000E+00  1.20000000E+00  1.20000000E+00  1.20000000E+00
  1.20000000E+00  1.20000000E+00  1.20000000E+00  1.20000000E+00  1.20000000E+00
  1.20000000E+00  1.20000000E+00  1.30000000E+00  1.20000000E+00  1.20000000E+00
  1.20000000E+00  1.20000000E+00  1.20000000E+00  1.20000000E+00  1.20000000E+00
  1.20000000E+00
%FLAG SCREEN
%FORMAT(5E16.8)
  7.20000000E-01  7.90000000E-01  7.20000000E-01  7.20000000E-01  7.20000000E-01
  7.20000000E-01  7.20000000E-01  8.50000000E-01  7.20000000E-01  7.20000000E-01
  7.90000000E-01  7.20000000E-01  7.20000000E-01  8.50000000E-01  7.20000000E-01
  7.90000000E-01  7.20000000E-01  7.90000000E-01  7.20000000E-01  7.20000000E-01
  7.20000000E-01  7.20000000E-01  7.90000000E-01  7.20000000E-01  8.50000000E-01
  7.20000000E-01  9.60000000E-01  7.20000000E-01  7.20000000E-01  7.20000000E-01
  7.90000000E-01  7.20000000E-01  7.20000000E-01  8.50000000E-01  8.50000000E-01
  8.50000000E-01  8.50000000E-01  8.50000000E-01  8.50000000E-01  8.50000000E-01
  8.50000000E-01  8.50000000E-01  8.50000000E-01  8.50000000E-01  8.50000000E-01
  8.50000000E-01  8.50000000E-01  8.50000000E-01  8.50000000E-01  8.50000000E-01
  8.50000000E-01  8.50000000E-01  8.50000000E-01  8.50000000E-01  8.50000000E-01
  8.50000000E-01  8.50000000E-01  8.50000000E-01  8.50000000E-01  8.50000000E-01
  8.50000000E-01
%FLAG IPOL
%FORMAT(1I8)
       0
