LIG
    32
  85.0410000 154.0430000  13.2770000  84.1480000 153.1450000  13.9030000
  86.0580000 153.5010000  12.4700000  84.2920000 151.7470000  13.7710000
  86.1830000 152.1210000  12.2950000  85.3230000 151.2510000  12.9610000
  84.4960000 155.9340000  11.2120000  84.6690000 156.2890000  12.3750000
  84.9050000 155.4560000  13.4660000  84.5980000 157.6300000  12.6780000
  84.6780000 155.9870000  14.8000000  84.9830000 158.2310000  13.8450000
  85.3970000 157.3100000  14.9570000  85.0510000 159.4530000  13.9460000
  84.2320000 158.2190000  11.9800000  83.1010000 153.6060000  14.6710000
  81.8760000 152.9810000  14.2900000  86.9760000 154.3040000  11.8360000
  87.7790000 153.5150000  10.9540000  83.3640000 150.7860000  14.4860000
  83.9870000 150.0890000  15.6230000  83.5270000 150.4740000  16.9810000
  84.0670000 148.6420000  15.4240000  81.9950000 150.4480000  17.2310000
  82.9890000 147.7380000  16.0290000  81.3320000 149.1360000  17.2410000
  81.5780000 148.3140000  16.0600000  80.3260000 149.2890000  17.3170000
  84.0750000 151.8510000  17.3760000  85.1580000 152.3270000  17.0670000
  83.2090000 152.5870000  18.1080000  82.3770000 152.2300000  18.3490000
