%VERSION  VERSION_STAMP = V0001.000  DATE = 09/06/26  21:56:01                  
%FLAG TITLE                                                                     
%FORMAT(20a4)                                                                   
LIG                                                                             
%FLAG POINTERS                                                                  
%FORMAT(10I8)                                                                   
      34       8       2      36       4      52      12      85       0       0
     163       1      36      52      85      18      37      13      10       0
       0       0       0       0       0       0       0       0      34       0
       0
%FLAG ATOM_NAME                                                                 
%FORMAT(20a4)                                                                   
O1  C1  N1  C2  C3  C4  C5  C6  C7  C8  N2  C9  C10 C11 C12 H1  N3  C13 C14 O2  
N4  C15 C16 O3  H2  O4  C17 C18 C19 C20 C21 C22 C23 C24 
%FLAG CHARGE                                                                    
%FORMAT(5E16.8)                                                                 
 -4.92217123E+00  4.80990364E+00 -4.47078664E+00  2.02502598E+00 -5.16511094E-01
  1.25493336E+00 -4.50728591E-01  1.67774538E+00  1.11407498E+00 -5.25531132E-01
 -1.95064255E+00 -1.33786304E+00 -1.32226475E+00  2.44306376E+00  3.04224943E+00
  3.02184045E+00 -3.09708033E+00  5.91379235E+00  3.91342115E-01 -4.59415161E+00
 -4.13587899E+00  2.64751797E-01  5.40876131E+00 -4.76706301E+00  2.94005877E+00
 -4.51286193E+00  1.66150931E+00 -2.40607249E-01  2.40177203E+00 -6.15567516E-01
 -6.15567516E-01 -1.36721917E-01 -1.36721917E-01 -2.21218722E-02
%FLAG ATOMIC_NUMBER                                                             
%FORMAT(10I8)                                                                   
       8       6       7       6       6       6       6       6       6       6
       7       6       6       6       6       1       7       6       6       8
       7       6       6       8       1       8       6       6       6       6
       6       6       6       6
%FLAG MASS                                                                      
%FORMAT(5E16.8)                                                                 
  1.60000000E+01  1.20100000E+01  1.40100000E+01  1.20100000E+01  1.20100000E+01
  1.20100000E+01  1.20100000E+01  1.20100000E+01  1.20100000E+01  1.20100000E+01
  1.40100000E+01  1.20100000E+01  1.20100000E+01  1.20100000E+01  1.20100000E+01
  1.00800000E+00  1.40100000E+01  1.20100000E+01  1.20100000E+01  1.60000000E+01
  1.40100000E+01  1.20100000E+01  1.20100000E+01  1.60000000E+01  1.00800000E+00
  1.60000000E+01  1.20100000E+01  1.20100000E+01  1.20100000E+01  1.20100000E+01
  1.20100000E+01  1.20100000E+01  1.20100000E+01  1.20100000E+01
%FLAG ATOM_TYPE_INDEX                                                           
%FORMAT(10I8)                                                                   
       1       2       3       2       4       2       4       2       2       4
       5       4       4       2       2       6       7       2       4       1
       3       4       2       1       6       8       4       4       2       4
       4       4       4       4
%FLAG NUMBER_EXCLUDED_ATOMS                                                     
%FORMAT(10I8)                                                                   
       7      10       8      10       7       9       5       8       7       4
       4       7       5       9       5       1       8       7       5       3
       4       3       2       1       1       1       1       5       5       4
       3       2       1       1
%FLAG NONBONDED_PARM_INDEX                                                      
%FORMAT(10I8)                                                                   
       1       2       4       7      11      16      22      29       2       3
       5       8      12      17      23      30       4       5       6       9
      13      18      24      31       7       8       9      10      14      19
      25      32      11      12      13      14      15      20      26      33
      16      17      18      19      20      21      27      34      22      23
      24      25      26      27      28      35      29      30      31      32
      33      34      35      36
%FLAG RESIDUE_LABEL                                                             
%FORMAT(20a4)                                                                   
LIG 
%FLAG RESIDUE_POINTER                                                           
%FORMAT(10I8)                                                                   
       1
%FLAG BOND_FORCE_CONSTANT                                                       
%FORMAT(5E16.8)                                                                 
  5.90600000E+02  3.36070000E+02  3.08440000E+02  3.77170000E+02  4.73590000E+02
  4.36000000E+02  4.66850000E+02  3.36100000E+02  4.24300000E+02  3.97760000E+02
  2.88330000E+02  3.13870000E+02  3.50470000E+02  3.17460000E+02  4.28900000E+02
  6.99130000E+02  2.50880000E+02  4.15540000E+02
%FLAG BOND_EQUIL_VALUE                                                          
%FORMAT(5E16.8)                                                                 
  1.21900000E+00  1.37980000E+00  1.44060000E+00  1.34620000E+00  1.01320000E+00
  1.33790000E+00  1.31850000E+00  1.41440000E+00  1.34570000E+00  1.33100000E+00
  1.46150000E+00  1.40010000E+00  1.36280000E+00  1.39670000E+00  1.33000000E+00
  1.20950000E+00  1.50560000E+00  1.31410000E+00
%FLAG ANGLE_FORCE_CONSTANT                                                      
%FORMAT(5E16.8)                                                                 
  8.72100000E+01  8.00800000E+01  7.98600000E+01  5.73700000E+01  6.86000000E+01
  6.88500000E+01  6.73900000E+01  6.06750000E+01  7.08000000E+01  6.88500000E+01
  6.22400000E+01  5.85700000E+01  6.37200000E+01  6.19400000E+01  6.24000000E+01
  6.37900000E+01  1.14280000E+02  5.32200000E+01  6.43200000E+01  6.22400000E+01
  6.79500000E+01  8.09800000E+01  7.86500000E+01  6.81000000E+01  8.00400000E+01
  6.77900000E+01  9.26500000E+01  8.66800000E+01  7.40500000E+01  7.80000000E+01
  6.96000000E+01  7.72200000E+01  5.79000000E+01  6.81300000E+01  7.58200000E+01
  6.44800000E+01  7.48600000E+01
%FLAG ANGLE_EQUIL_VALUE                                                         
%FORMAT(5E16.8)                                                                 
  2.14762857E+00  2.13122246E+00  2.14047271E+00  2.04657396E+00  1.81915746E+00
  1.98636007E+00  1.99857738E+00  2.69042620E+00  1.84079955E+00  1.98636007E+00
  2.55551219E+00  2.04936649E+00  2.04517769E+00  2.09195254E+00  2.15077016E+00
  2.13802925E+00  1.09659084E+00  3.12536243E+00  2.26194768E+00  2.55551219E+00
  2.18637489E+00  2.10608971E+00  2.09771213E+00  2.07484830E+00  2.12685914E+00
  2.16927066E+00  2.04674849E+00  2.13925098E+00  1.99613392E+00  3.09237569E+00
  2.04273423E+00  2.23489507E+00  3.14159400E+00  2.00887483E+00  2.22843734E+00
  2.26561287E+00  2.02667720E+00
%FLAG DIHEDRAL_FORCE_CONSTANT                                                   
%FORMAT(5E16.8)                                                                 
  2.50000000E+00  2.00000000E+00  2.17500000E+00  3.00000000E-01  0.00000000E+00
  6.65000000E+00  1.00000000E+00  6.50000000E-01  1.05000000E+00  1.53000000E+00
  1.57000000E+00  1.05000000E+01  1.10000000E+00
%FLAG DIHEDRAL_PERIODICITY                                                      
%FORMAT(5E16.8)                                                                 
  2.00000000E+00  1.00000000E+00  2.00000000E+00  3.00000000E+00  2.00000000E+00
  2.00000000E+00  2.00000000E+00  2.00000000E+00  2.00000000E+00  1.00000000E+00
  2.00000000E+00  2.00000000E+00  2.00000000E+00
%FLAG DIHEDRAL_PHASE                                                            
%FORMAT(5E16.8)                                                                 
  3.14159400E+00  0.00000000E+00  3.14159400E+00  0.00000000E+00  3.14159400E+00
  3.14159400E+00  3.14159400E+00  3.14159400E+00  3.14159400E+00  3.14159400E+00
  3.14159400E+00  3.14159400E+00  3.14159400E+00
%FLAG SCEE_SCALE_FACTOR                                                         
%FORMAT(5E16.8)                                                                 
  1.20000000E+00  1.20000000E+00  1.20000000E+00  1.20000000E+00  1.20000000E+00
  1.20000000E+00  1.20000000E+00  1.20000000E+00  1.20000000E+00  1.20000000E+00
  1.20000000E+00  0.00000000E+00  0.00000000E+00
%FLAG SCNB_SCALE_FACTOR                                                         
%FORMAT(5E16.8)                                                                 
  2.00000000E+00  2.00000000E+00  2.00000000E+00  2.00000000E+00  2.00000000E+00
  2.00000000E+00  2.00000000E+00  2.00000000E+00  2.00000000E+00  2.00000000E+00
  2.00000000E+00  0.00000000E+00  0.00000000E+00
%FLAG SOLTY                                                                     
%FORMAT(5E16.8)                                                                 
  0.00000000E+00  0.00000000E+00  0.00000000E+00  0.00000000E+00  0.00000000E+00
  0.00000000E+00  0.00000000E+00  0.00000000E+00  0.00000000E+00  0.00000000E+00
%FLAG LENNARD_JONES_ACOEF                                                       
%FORMAT(5E16.8)                                                                 
  3.76435470E+05  5.17507491E+05  6.96551276E+05  5.17814271E+05  6.99381362E+05
  7.01825028E+05  8.92208123E+05  1.18640578E+06  1.19359607E+06  2.00671338E+06
  5.29641935E+05  7.10207765E+05  7.13532671E+05  1.20705609E+06  7.23647490E+05
  9.87857350E+02  1.71458823E+03  1.65195713E+03  3.37137075E+03  1.82809059E+03
  1.34728399E-01  5.15491878E+05  7.01106848E+05  7.02755693E+05  1.20132739E+06
  7.16178718E+05  1.52360475E+03  7.02078680E+05  3.27367585E+05  4.46121722E+05
  4.47026838E+05  7.65280989E+05  4.55871651E+05  9.46795083E+02  4.46307018E+05
  2.83662575E+05
%FLAG LENNARD_JONES_BCOEF                                                       
%FORMAT(5E16.8)                                                                 
  4.69350655E+02  4.98871431E+02  5.24668528E+02  5.21008860E+02  5.48900066E+02
  5.74088001E+02  7.38469198E+02  7.71958727E+02  8.08414196E+02  1.13185062E+03
  4.87196412E+02  5.11427129E+02  5.35211915E+02  7.51664026E+02  4.98353106E+02
  1.22938581E+01  1.46824710E+01  1.50468782E+01  2.32108730E+01  1.46352678E+01
  7.34107347E-02  5.64804067E+02  5.97113873E+02  6.24158704E+02  8.81180204E+02
  5.82583725E+02  1.57004457E+01  6.77820248E+02  3.67361018E+02  3.88758656E+02
  4.06301077E+02  5.74027680E+02  3.79365004E+02  1.01016461E+01  4.41089616E+02
  2.87011518E+02
%FLAG BONDS_INC_HYDROGEN                                                        
%FORMAT(10I8)                                                                   
       6      45       5      60      72       5
%FLAG BONDS_WITHOUT_HYDROGEN                                                    
%FORMAT(10I8)                                                                   
       0       3       1       3       6       2       3       9       3       6
      12       4       9      15       6       9      18       7      12      21
       8      15      24       9      15      27       7      18      30      10
      21      33       8      21      24      11      24      36       8      27
      30      10      30      81      10      33      39       7      36      42
       7      39      48      12      39      42       6      42      75      13
      48      51      14      48      54      15      51      57       1      51
      60       2      54      63      16      60      66       2      63      66
      17      66      69       1      75      78      18      81      84       8
      84      87       8      84      90       8      87      93      16      90
      96      16      93      99      16      96      99      16
%FLAG ANGLES_INC_HYDROGEN                                                       
%FORMAT(10I8)                                                                   
       3       6      45       4      12       6      45      12      51      60
      72       4      66      60      72       4
%FLAG ANGLES_WITHOUT_HYDROGEN                                                   
%FORMAT(10I8)                                                                   
       0       3       6       1       0       3       9       2       3       6
      12       3       3       9      15       5       3       9      18       6
       6       3       9       7       6      12      21       8       9      15
      24       9       9      15      27      10       9      18      30      11
      12      21      33      13      12      21      24      14      15       9
      18      10      15      24      21      15      15      24      36      16
      15      27      30      11      18      30      27      17      18      30
      81      17      21      33      39      18      21      24      36      14
      24      15      27      19      24      21      33      14      24      36
      42      18      27      30      81      17      30      81      84      20
      33      39      48      21      33      39      42      10      36      42
      39      10      36      42      75      22      39      48      51      23
      39      48      54      24      39      42      75      25      42      39
      48      26      42      75      78      27      48      51      57      28
      48      51      60      29      48      54      63      30      51      48
      54      31      51      60      66      32      54      63      66      33
      57      51      60       1      60      66      63      34      60      66
      69       1      63      66      69      35      81      84      87      13
      81      84      90      13      84      87      93      36      84      90
      96      36      87      84      90      13      87      93      99      37
      90      96      99      37      93      99      96      37
%FLAG DIHEDRALS_INC_HYDROGEN                                                    
%FORMAT(10I8)                                                                   
       0       3       6      45       2       0       3      -6      45       1
       9       3       6      45       1      21      12       6      45       5
      48      51      60      72       1      57      51      60      72       2
      57      51     -60      72       1      63      66      60      72       1
      69      66      60      72       2      69      66     -60      72       1
       3      12      -6     -45      13      51      66     -60     -72      13
%FLAG DIHEDRALS_WITHOUT_HYDROGEN                                                
%FORMAT(10I8)                                                                   
       0       3       6      12       1       0       3       9      15       3
       0       3      -9      15       4       0       3       9      18       3
       3       6      12      21       5       3       9      15      24       6
       3       9      15      27       6       3       9      18      30       5
       6       3       9      15       3       6       3       9      18       3
       6      12      21      33       5       6      12      21      24       5
       9       3       6      12       1       9      15      24      21       6
       9      15      24      36       6       9      15     -27      30       5
       9      18     -30      27       5       9      18      30      81       5
      12      21      33      39       5      12      21      24      15       7
      12      21      24      36       7      15       9     -18      30       5
      15      24      21      33       7      15      24      36      42       5
      15      27     -30      18       5      15      27      30      81       5
      18       9      15      24       6      18       9     -15      27       6
      18      30      81      84       5      21      33      39      48       5
      21      33      39      42       5      21      24      15      27       6
      21      24     -36      42       5      24      15      27      30       5
      24      21      33      39       5      24      36     -42      39       5
      24      36      42      75       5      27      15      24      36       6
      27      30      81      84       5      30      81      84      87       5
      30      81      84      90       5      33      21      24      36       7
      33      39      48      51       8      33      39      48      54       8
      33      39     -42      36       6      33      39      42      75       6
      36      42      39      48       6      36      42      75      78       9
      39      48      51      57       1      39      48      51      60       1
      39      48      54      63       5      39      42      75      78       9
      42      39      48      51      10      42      39     -48      51      11
      42      39      48      54       8      48      39      42      75       6
      48      51      60      66       1      48      54     -63      66       5
      51      48      54      63       5      51      60     -66      63       1
      51      60      66      69       1      54      48      51      57       1
      54      48      51      60       1      54      63     -66      60       5
      54      63      66      69       5      57      51      60      66       1
      81      84      87      93       5      81      84      90      96       5
      84      87      93      99       5      84      90     -96      99       5
      87      84      90      96       5      87      93     -99      96       5
      90      84      87      93       5      90      96     -99      93       5
       0       3      -6      -9      12       3      18      -9     -15      12
      27       9     -15     -24      12      12      33     -21     -24      12
      36      15     -24     -21      12      33      42     -39     -48      12
      36      39     -42     -75      12      51      54     -48     -39      13
      48      60     -51     -57      12      63      60     -66     -69      12
      81      87     -84     -90      12
%FLAG EXCLUDED_ATOMS_LIST                                                       
%FORMAT(10I8)                                                                   
       2       3       4       5       6       7      16       3       4       5
       6       7       8       9      10      11      16       4       5       6
       7       8       9      12      16       5       6       7       8       9
      10      11      13      16      28       6       8       9      12      13
      14      16       7       8       9      10      11      12      13      15
      28       9      10      11      28      29       9      10      12      13
      14      15      16      17      10      11      12      13      14      15
      26      11      13      28      29      28      29      30      31      13
      14      15      17      18      19      26      14      15      17      26
      27      15      17      18      19      20      21      22      26      27
      17      18      19      26      27       0      18      19      20      21
      22      23      25      26      19      20      21      22      23      24
      25      20      21      22      23      24      21      23      25      22
      23      24      25      23      24      25      24      25      25       0
      27       0      29      30      31      32      33      30      31      32
      33      34      31      32      33      34      32      33      34      33
      34      34       0
%FLAG HBOND_ACOEF                                                               
%FORMAT(5E16.8)                                                                 

%FLAG HBOND_BCOEF                                                               
%FORMAT(5E16.8)                                                                 

%FLAG HBCUT                                                                     
%FORMAT(5E16.8)                                                                 

%FLAG AMBER_ATOM_TYPE                                                           
%FORMAT(20a4)                                                                   
o   c   ns  c2  c1  c2  c1  ce  ce  c1  n3  c1  c1  c2  c2  hn  n   c   c1  o   
ns  c1  c   o   hn  os  c1  c1  ce  c1  c1  c1  c1  c1  
%FLAG TREE_CHAIN_CLASSIFICATION                                                 
%FORMAT(20a4)                                                                   
BLA BLA BLA BLA BLA BLA BLA BLA BLA BLA BLA BLA BLA BLA BLA BLA BLA BLA BLA BLA 
BLA BLA BLA BLA BLA BLA BLA BLA BLA BLA BLA BLA BLA BLA 
%FLAG JOIN_ARRAY                                                                
%FORMAT(10I8)                                                                   
       0       0       0       0       0       0       0       0       0       0
       0       0       0       0       0       0       0       0       0       0
       0       0       0       0       0       0       0       0       0       0
       0       0       0       0
%FLAG IROTAT                                                                    
%FORMAT(10I8)                                                                   
       0       0       0       0       0       0       0       0       0       0
       0       0       0       0       0       0       0       0       0       0
       0       0       0       0       0       0       0       0       0       0
       0       0       0       0
%FLAG RADIUS_SET                                                                
%FORMAT(1a80)                                                                   
modified Bondi radii (mbondi)                                                   
%FLAG RADII                                                                     
%FORMAT(5E16.8)                                                                 
  1.50000000E+00  1.70000000E+00  1.55000000E+00  1.70000000E+00  1.70000000E+00
  1.70000000E+00  1.70000000E+00  1.70000000E+00  1.70000000E+00  1.70000000E+00
  1.55000000E+00  1.70000000E+00  1.70000000E+00  1.70000000E+00  1.70000000E+00
  1.30000000E+00  1.55000000E+00  1.70000000E+00  1.70000000E+00  1.50000000E+00
  1.55000000E+00  1.70000000E+00  1.70000000E+00  1.50000000E+00  1.30000000E+00
  1.50000000E+00  1.70000000E+00  1.70000000E+00  1.70000000E+00  1.70000000E+00
  1.70000000E+00  1.70000000E+00  1.70000000E+00  1.70000000E+00
%FLAG SCREEN                                                                    
%FORMAT(5E16.8)                                                                 
  8.50000000E-01  7.20000000E-01  7.90000000E-01  7.20000000E-01  7.20000000E-01
  7.20000000E-01  7.20000000E-01  7.20000000E-01  7.20000000E-01  7.20000000E-01
  7.90000000E-01  7.20000000E-01  7.20000000E-01  7.20000000E-01  7.20000000E-01
  8.50000000E-01  7.90000000E-01  7.20000000E-01  7.20000000E-01  8.50000000E-01
  7.90000000E-01  7.20000000E-01  7.20000000E-01  8.50000000E-01  8.50000000E-01
  8.50000000E-01  7.20000000E-01  7.20000000E-01  7.20000000E-01  7.20000000E-01
  7.20000000E-01  7.20000000E-01  7.20000000E-01  7.20000000E-01
%FLAG IPOL                                                                      
%FORMAT(1I8)                                                                    
       0
