LIG
    37
  84.6930000 151.1360000  13.2520000  85.8060000 151.8370000  12.7360000
  83.6910000 151.9190000  13.8510000  85.9200000 153.2340000  12.7910000
  83.7860000 153.3150000  13.9370000  84.8950000 153.9870000  13.3960000
  84.2510000 148.5420000  17.3200000  84.9950000 149.6470000  16.6910000
  83.8330000 147.5010000  16.3620000  85.8170000 149.1720000  15.4970000
  83.5850000 148.0420000  14.9570000  84.8700000 148.6640000  14.4000000
  85.5850000 147.6990000  13.5580000  84.6210000 149.5530000  13.1350000
  85.7640000 148.7160000  12.5370000  83.1380000 149.0680000  18.1280000
  86.2880000 147.7120000  22.0780000  84.7970000 148.3370000  21.4820000
  84.5760000 148.4590000  20.1100000  83.8070000 148.7200000  22.3860000
  85.5290000 148.0800000  19.2420000  83.3710000 148.9720000  19.6180000
  82.5940000 149.2200000  21.9120000  82.3750000 149.3400000  20.5380000
  85.0000000 155.4090000  13.4560000  84.9390000 156.1920000  12.3100000
  85.5170000 155.9980000  14.6810000  84.5930000 155.8160000  11.1930000
  85.2160000 157.5250000  12.5120000  84.8620000 157.3400000  14.9220000
  85.0250000 158.1910000  13.6930000  84.9140000 159.4150000  13.7250000
  85.5760000 158.0360000  11.7520000  86.9960000 153.9370000  12.3050000
  87.8190000 153.2990000  11.3370000  82.7250000 154.0540000  14.4060000
  81.7290000 153.2480000  15.0360000
