LIG
    32
  84.6880000 154.1260000  13.3560000  83.5620000 153.5530000  13.9890000
  85.5480000 153.3010000  12.5960000  83.3260000 152.1690000  13.9370000
  85.2750000 151.9340000  12.4920000  84.1860000 151.3750000  13.1650000
  84.4870000 156.1260000  11.2830000  84.9060000 156.3880000  12.4070000
  84.9740000 155.5190000  13.4910000  85.2690000 157.6840000  12.6960000
  85.5160000 156.0070000  14.7490000  85.0880000 158.2750000  13.9180000
  84.9020000 157.3460000  15.0880000  85.0050000 159.4950000  14.0320000
  85.6840000 158.2190000  11.9810000  82.6670000 154.3500000  14.6650000
  81.7990000 155.0150000  13.7470000  86.6400000 153.9050000  12.0180000
  87.6220000 153.0560000  11.4380000  82.1720000 151.5090000  14.6720000
  82.6420000 150.5160000  15.6570000  82.4230000 150.9240000  17.0690000
  84.0280000 150.0920000  15.3670000  83.0790000 152.2610000  17.5190000
  85.1020000 150.3610000  16.4290000  84.2360000 152.7400000  16.7550000
  85.3790000 151.8380000  16.7090000  84.5460000 153.6180000  17.1720000
  80.9270000 150.9280000  17.4310000  80.3360000 150.2440000  18.2530000
  80.2330000 151.8720000  16.7520000  80.6670000 152.4060000  16.1170000
