LIG
    35
  84.2320000 154.5900000  13.8390000  83.0980000 154.1820000  14.5610000
  84.9900000 153.5980000  13.1640000  82.7640000 152.8380000  14.5860000
  84.6500000 152.2380000  13.2010000  83.5330000 151.8760000  13.9180000
  81.6430000 152.1200000  15.3030000  82.9250000 150.5210000  14.1950000
  81.5510000 150.9100000  14.4870000  82.1440000 151.7000000  16.7250000
  83.5460000 149.9480000  15.5140000  80.5640000 149.9710000  14.6010000
  82.9320000 150.4450000  16.7700000  80.6710000 148.8270000  14.1810000
  84.2460000 156.3490000  11.5150000  84.6050000 156.7270000  12.6270000
  84.6280000 155.9730000  13.8060000  85.0410000 158.0260000  12.7530000
  85.2710000 156.5660000  14.9750000  85.0620000 158.7640000  13.9020000
  84.8280000 158.0010000  15.1680000  85.1820000 159.9860000  13.8810000
  85.3710000 158.4650000  11.9360000  79.4710000 150.4750000  15.2290000
  78.2140000 149.7520000  15.2290000  78.5110000 148.4580000  16.0020000
  77.1220000 150.5280000  15.9740000  77.7870000 149.3820000  13.8040000
  83.6530000 150.1680000  18.0040000  82.8290000 149.5700000  19.1250000
  81.4850000 149.2230000  18.9200000  83.3870000 149.3640000  20.3950000
  80.7240000 148.6710000  19.9530000  82.6260000 148.8110000  21.4280000
  81.2960000 148.4640000  21.2060000
