LIG
    37
  84.5730000 151.2080000  13.0730000  85.6660000 151.9190000  12.5310000
  83.6000000 151.9760000  13.7400000  85.7940000 153.3120000  12.6400000
  83.7100000 153.3660000  13.8780000  84.8040000 154.0480000  13.3210000
  87.6320000 147.5930000  14.9350000  87.1500000 147.5040000  13.5470000
  86.6680000 148.2370000  15.8440000  85.6290000 147.3740000  13.4870000
  85.8240000 149.3030000  15.1510000  84.9950000 148.6670000  14.0280000
  83.6410000 148.3840000  14.5020000  84.4110000 149.6240000  12.9320000
  83.0690000 148.9730000  13.3120000  88.9700000 148.1940000  15.0360000
  90.4160000 151.7000000  18.6450000  90.0540000 150.0860000  18.1640000
  89.6810000 149.8000000  16.8510000  90.1430000 149.0590000  19.1040000
  89.6150000 150.7900000  15.9450000  89.3910000 148.4880000  16.4570000
  89.8600000 147.7460000  18.7260000  89.4860000 147.4610000  17.4100000
  84.9260000 155.4660000  13.4350000  84.8130000 156.2990000  12.3280000
  85.5020000 156.0010000  14.6590000  84.4120000 155.9730000  11.2130000
  85.1040000 157.6210000  12.5750000  84.8630000 157.3310000  14.9880000
  84.9700000 158.2350000  13.7910000  84.8640000 159.4560000  13.8810000
  85.4320000 158.1640000  11.8220000  86.8560000 154.0270000  12.1400000
  87.7440000 153.3580000  11.2520000  82.6760000 154.0910000  14.4210000
  81.6820000 153.2620000  15.0240000
