LIG
    37
  83.9230000 154.8620000  14.0150000  84.7860000 153.7640000  13.8160000
  82.5440000 154.6180000  14.2450000  84.2680000 152.4880000  13.9260000
  82.0240000 153.3190000  14.3380000  82.9000000 152.2670000  14.1840000
  84.9470000 151.1420000  13.8420000  82.6850000 150.7730000  14.2730000
  83.8080000 150.3090000  13.4610000  85.3870000 150.6710000  15.2690000
  82.9560000 150.2670000  15.7300000  83.9710000 149.0350000  12.9980000
  84.2780000 150.6940000  16.2820000  85.0440000 148.5870000  12.6170000
  84.3100000 156.4310000  11.6360000  84.5230000 156.8870000  12.7550000
  84.4070000 156.2090000  13.9710000  84.9640000 158.1880000  12.8580000
  85.0990000 156.7610000  15.1260000  85.0730000 158.9410000  13.9950000
  84.7690000 158.2310000  15.2800000  85.3360000 160.1390000  13.9530000
  85.2310000 158.6260000  12.0180000  86.1080000 153.8930000  13.4940000
  86.3010000 153.7280000  12.0910000  82.8040000 148.3430000  13.0280000
  82.7160000 147.0560000  13.6900000  82.8940000 145.9020000  12.6980000
  81.2860000 147.0060000  14.2500000  83.7020000 146.9670000  14.8610000
  84.6140000 149.9610000  17.5080000  83.4390000 149.7450000  18.4380000
  83.6360000 149.3390000  19.7670000  82.1300000 149.9870000  17.9940000
  82.5500000 149.1580000  20.6240000  81.0450000 149.8100000  18.8550000
  81.2550000 149.3940000  20.1680000
