LIG
    28
  84.2790000 154.7280000  13.8260000  85.1960000 153.7200000  13.4850000
  82.9820000 154.3280000  14.1750000  84.8480000 152.3550000  13.5050000
  82.6160000 152.9780000  14.1870000  83.5420000 151.9960000  13.8520000
  84.4230000 156.5190000  11.5340000  84.7050000 156.8850000  12.6720000
  84.6640000 156.1130000  13.8380000  85.1190000 158.1850000  12.8450000
  85.2360000 156.6870000  15.0540000  85.0840000 158.9020000  14.0070000
  84.7780000 158.1170000  15.2450000  85.2150000 160.1230000  14.0150000
  85.4760000 158.6460000  12.0510000  85.8490000 151.2890000  13.0970000
  86.3970000 151.4950000  11.7490000  86.5890000 150.2430000  10.9740000
  87.4670000 152.4910000  11.6940000  87.2890000 150.3660000   9.5850000
  88.9170000 152.0030000  11.7540000  88.4900000 151.2090000   9.4280000
  89.3860000 151.1480000  10.5740000  88.1930000 152.1760000   9.2990000
  87.2250000 149.0900000  11.7710000  88.2810000 149.0780000  12.3830000
  86.4510000 147.9800000  11.7740000  85.6380000 147.9740000  11.3090000
