%VERSION  VERSION_STAMP = V0001.000  DATE = 09/06/26  21:55:57                  
%FLAG TITLE                                                                     
%FORMAT(20a4)                                                                   
LIG                                                                             
%FLAG POINTERS                                                                  
%FORMAT(10I8)                                                                   
      32      11       3      31       5      43      12      69       0       0
     147       1      31      43      69      21      40      14      13       0
       0       0       0       0       0       0       0       0      32       0
       0
%FLAG ATOM_NAME                                                                 
%FORMAT(20a4)                                                                   
C1  C2  C3  C4  C5  C6  O1  C7  N1  N2  C8  C9  C10 O2  H1  O3  C11 O4  C12 C13 
N3  C14 C15 C16 C17 N4  C18 H2  C19 O5  O6  H3  
%FLAG CHARGE                                                                    
%FORMAT(5E16.8)                                                                 
  2.27414304E+00  2.62461254E+00  3.08146382E+00  2.07353374E+00 -5.83150045E-01
 -8.53623643E-01 -4.59451606E+00  5.90544654E+00 -3.18651538E+00 -4.13615232E+00
  3.82650078E-01  5.40876131E+00  2.64423795E-01 -4.76706301E+00  2.94005877E+00
 -4.64309671E+00  1.65030260E+00 -4.51184148E+00  1.66150931E+00 -4.82052724E-01
 -2.21043788E+00  3.08939052E+00  2.74719395E-01 -4.88412307E-01  1.51172201E-01
 -3.30616300E+00  1.11994256E-01  2.80206129E+00  5.69126163E+00 -4.71729791E+00
 -5.94956273E+00  4.04239859E+00
%FLAG ATOMIC_NUMBER                                                             
%FORMAT(10I8)                                                                   
       6       6       6       6       6       6       8       6       7       7
       6       6       6       8       1       8       6       8       6       6
       7       6       6       6       6       7       6       1       6       8
       8       1
%FLAG MASS                                                                      
%FORMAT(5E16.8)                                                                 
  1.20100000E+01  1.20100000E+01  1.20100000E+01  1.20100000E+01  1.20100000E+01
  1.20100000E+01  1.60000000E+01  1.20100000E+01  1.40100000E+01  1.40100000E+01
  1.20100000E+01  1.20100000E+01  1.20100000E+01  1.60000000E+01  1.00800000E+00
  1.60000000E+01  1.20100000E+01  1.60000000E+01  1.20100000E+01  1.20100000E+01
  1.40100000E+01  1.20100000E+01  1.20100000E+01  1.20100000E+01  1.20100000E+01
  1.40100000E+01  1.20100000E+01  1.00800000E+00  1.20100000E+01  1.60000000E+01
  1.60000000E+01  1.00800000E+00
%FLAG ATOM_TYPE_INDEX                                                           
%FORMAT(10I8)                                                                   
       1       1       1       1       2       2       3       1       4       5
       2       1       2       3       6       7       2       7       2       2
       8       1       2       2       2       9       2       6       1       3
      10      11
%FLAG NUMBER_EXCLUDED_ATOMS                                                     
%FORMAT(10I8)                                                                   
      16      12       9       9       5       4       6       7       7       5
       3       3       2       1       1       2       1       1       1       6
       9      10       5       7       3       3       1       1       3       2
       1       1
%FLAG NONBONDED_PARM_INDEX                                                      
%FORMAT(10I8)                                                                   
       1       2       4       7      11      16      22      29      37      46
      56       2       3       5       8      12      17      23      30      38
      47      57       4       5       6       9      13      18      24      31
      39      48      58       7       8       9      10      14      19      25
      32      40      49      59      11      12      13      14      15      20
      26      33      41      50      60      16      17      18      19      20
      21      27      34      42      51      61      22      23      24      25
      26      27      28      35      43      52      62      29      30      31
      32      33      34      35      36      44      53      63      37      38
      39      40      41      42      43      44      45      54      64      46
      47      48      49      50      51      52      53      54      55      65
      56      57      58      59      60      61      62      63      64      65
      66
%FLAG RESIDUE_LABEL                                                             
%FORMAT(20a4)                                                                   
LIG 
%FLAG RESIDUE_POINTER                                                           
%FORMAT(10I8)                                                                   
       1
%FLAG BOND_FORCE_CONSTANT                                                       
%FORMAT(5E16.8)                                                                 
  3.13870000E+02  4.36000000E+02  3.50470000E+02  4.24300000E+02  4.66850000E+02
  3.36100000E+02  6.99130000E+02  5.90600000E+02  3.17460000E+02  3.36070000E+02
  4.28900000E+02  4.73590000E+02  2.50880000E+02  4.15540000E+02  3.97760000E+02
  2.93230000E+02  3.08440000E+02  3.78090000E+02  4.60050000E+02  3.59270000E+02
  5.35510000E+02
%FLAG BOND_EQUIL_VALUE                                                          
%FORMAT(5E16.8)                                                                 
  1.40010000E+00  1.33790000E+00  1.36280000E+00  1.34570000E+00  1.31850000E+00
  1.41440000E+00  1.20950000E+00  1.21900000E+00  1.39670000E+00  1.37980000E+00
  1.33000000E+00  1.01320000E+00  1.50560000E+00  1.31410000E+00  1.33100000E+00
  1.42060000E+00  1.44060000E+00  1.34550000E+00  1.01950000E+00  1.35560000E+00
  9.72500000E-01
%FLAG ANGLE_FORCE_CONSTANT                                                      
%FORMAT(5E16.8)                                                                 
  7.86500000E+01  6.81000000E+01  8.00400000E+01  7.08000000E+01  6.88500000E+01
  6.77900000E+01  6.54700000E+01  9.26500000E+01  6.37900000E+01  5.73200000E+01
  7.94600000E+01  6.44800000E+01  6.22400000E+01  8.09800000E+01  6.37200000E+01
  8.66800000E+01  8.72100000E+01  6.96000000E+01  7.72200000E+01  5.73700000E+01
  7.40500000E+01  7.80000000E+01  6.81300000E+01  5.79000000E+01  7.58200000E+01
  8.08400000E+01  1.14280000E+02  8.84000000E+01  6.77300000E+01  7.67000000E+01
  8.00800000E+01  7.47800000E+01  6.22400000E+01  7.48600000E+01  6.88500000E+01
  1.14280000E+02  5.95100000E+01  6.05100000E+01  6.84600000E+01  1.02030000E+02
%FLAG ANGLE_EQUIL_VALUE                                                         
%FORMAT(5E16.8)                                                                 
  2.09771213E+00  2.07484830E+00  2.12685914E+00  1.84079955E+00  1.98636007E+00
  2.16927066E+00  2.16560546E+00  2.04674849E+00  2.13802925E+00  3.14159400E+00
  2.14570870E+00  2.26561287E+00  2.55551219E+00  2.10608971E+00  2.04517769E+00
  2.13925098E+00  2.14762857E+00  2.04273423E+00  2.23489507E+00  2.04657396E+00
  1.99613392E+00  3.09237569E+00  2.00887483E+00  3.14159400E+00  2.22843734E+00
  2.04238517E+00  1.09659084E+00  2.17380852E+00  2.18183703E+00  3.14159400E+00
  2.13122246E+00  2.26526381E+00  2.55551219E+00  2.02667720E+00  1.98636007E+00
  1.09659084E+00  1.98252035E+00  3.09743715E+00  1.85947458E+00  2.13087340E+00
%FLAG DIHEDRAL_FORCE_CONSTANT                                                   
%FORMAT(5E16.8)                                                                 
  2.50000000E+00  0.00000000E+00  1.05000000E+00  6.65000000E+00  1.53000000E+00
  1.57000000E+00  6.50000000E-01  2.00000000E+00  3.00000000E-01  2.17500000E+00
  2.30000000E+00  1.90000000E+00  1.05000000E+01  1.10000000E+00
%FLAG DIHEDRAL_PERIODICITY                                                      
%FORMAT(5E16.8)                                                                 
  2.00000000E+00  2.00000000E+00  2.00000000E+00  2.00000000E+00  1.00000000E+00
  2.00000000E+00  2.00000000E+00  1.00000000E+00  2.00000000E+00  2.00000000E+00
  2.00000000E+00  1.00000000E+00  2.00000000E+00  2.00000000E+00
%FLAG DIHEDRAL_PHASE                                                            
%FORMAT(5E16.8)                                                                 
  3.14159400E+00  3.14159400E+00  3.14159400E+00  3.14159400E+00  3.14159400E+00
  3.14159400E+00  3.14159400E+00  0.00000000E+00  3.14159400E+00  3.14159400E+00
  3.14159400E+00  0.00000000E+00  3.14159400E+00  3.14159400E+00
%FLAG SCEE_SCALE_FACTOR                                                         
%FORMAT(5E16.8)                                                                 
  1.20000000E+00  1.20000000E+00  1.20000000E+00  1.20000000E+00  1.20000000E+00
  1.20000000E+00  1.20000000E+00  1.20000000E+00  1.20000000E+00  1.20000000E+00
  1.20000000E+00  1.20000000E+00  0.00000000E+00  0.00000000E+00
%FLAG SCNB_SCALE_FACTOR                                                         
%FORMAT(5E16.8)                                                                 
  2.00000000E+00  2.00000000E+00  2.00000000E+00  2.00000000E+00  2.00000000E+00
  2.00000000E+00  2.00000000E+00  2.00000000E+00  2.00000000E+00  2.00000000E+00
  2.00000000E+00  2.00000000E+00  0.00000000E+00  0.00000000E+00
%FLAG SOLTY                                                                     
%FORMAT(5E16.8)                                                                 
  0.00000000E+00  0.00000000E+00  0.00000000E+00  0.00000000E+00  0.00000000E+00
  0.00000000E+00  0.00000000E+00  0.00000000E+00  0.00000000E+00  0.00000000E+00
  0.00000000E+00  0.00000000E+00  0.00000000E+00
%FLAG LENNARD_JONES_ACOEF                                                       
%FORMAT(5E16.8)                                                                 
  6.96551276E+05  1.18640578E+06  2.00671338E+06  5.17507491E+05  8.92208123E+05
  3.76435470E+05  7.01106848E+05  1.20132739E+06  5.15491878E+05  7.02078680E+05
  6.99381362E+05  1.19359607E+06  5.17814271E+05  7.02755693E+05  7.01825028E+05
  1.71458823E+03  3.37137075E+03  9.87857350E+02  1.52360475E+03  1.65195713E+03
  1.34728399E-01  4.46121722E+05  7.65280989E+05  3.27367585E+05  4.46307018E+05
  4.47026838E+05  9.46795083E+02  2.83662575E+05  7.10207765E+05  1.20705609E+06
  5.29641935E+05  7.16178718E+05  7.13532671E+05  1.82809059E+03  4.55871651E+05
  7.23647490E+05  7.13691175E+05  1.20572069E+06  5.37823556E+05  7.23403259E+05
  7.18259517E+05  2.07791361E+03  4.60917758E+05  7.25846509E+05  7.24302894E+05
  5.92438683E+05  1.01229921E+06  4.37717034E+05  5.94682930E+05  5.94304835E+05
  1.36475542E+03  3.78207390E+05  6.04651377E+05  6.09286822E+05  5.03152404E+05
  2.25372434E+02  4.71994656E+02  1.15813907E+02  1.89434762E+02  2.13197010E+02
  2.61760843E-03  1.16469347E+02  2.45082140E+02  2.93996564E+02  1.74176419E+02
  1.10360882E-05
%FLAG LENNARD_JONES_BCOEF                                                       
%FORMAT(5E16.8)                                                                 
  5.24668528E+02  7.71958727E+02  1.13185062E+03  4.98871431E+02  7.38469198E+02
  4.69350655E+02  5.97113873E+02  8.81180204E+02  5.64804067E+02  6.77820248E+02
  5.48900066E+02  8.08414196E+02  5.21008860E+02  6.24158704E+02  5.74088001E+02
  1.46824710E+01  2.32108730E+01  1.22938581E+01  1.57004457E+01  1.50468782E+01
  7.34107347E-02  3.88758656E+02  5.74027680E+02  3.67361018E+02  4.41089616E+02
  4.06301077E+02  1.01016461E+01  2.87011518E+02  5.11427129E+02  7.51664026E+02
  4.87196412E+02  5.82583725E+02  5.35211915E+02  1.46352678E+01  3.79365004E+02
  4.98353106E+02  4.52784989E+02  6.63482084E+02  4.33589357E+02  5.17110882E+02
  4.74247817E+02  1.37803855E+01  3.36894171E+02  4.40800258E+02  3.88888730E+02
  4.76608379E+02  7.02365877E+02  4.51916854E+02  5.41675626E+02  4.98393522E+02
  1.29026271E+01  3.52573684E+02  4.64809588E+02  4.12077831E+02  4.32634597E+02
  4.40751799E+00  7.19086644E+00  3.48534600E+00  4.58384710E+00  4.47571103E+00
  8.47240681E-03  2.93355636E+00  4.43692527E+00  4.29183694E+00  3.81654050E+00
  4.55498033E-04
%FLAG BONDS_INC_HYDROGEN                                                        
%FORMAT(10I8)                                                                   
      27      42      12      75      81      19      90      93      21
%FLAG BONDS_WITHOUT_HYDROGEN                                                    
%FORMAT(10I8)                                                                   
       0      24       1       0       3       2       0       6       2       3
      45       3       3       9       4       6      51       3       6      12
       5       9      15       6       9      57       6      12      15       7
      18      21       8      21      24       9      21      27      10      24
      30      11      27      33      10      30      36       7      33      39
       8      33      36      13      45      48      14      51      54      14
      57      60      15      60      63      16      60      66      15      63
      84      17      63      69       5      66      72       7      69      75
      18      72      78       7      75      78      18      84      87       8
      84      90      20
%FLAG ANGLES_INC_HYDROGEN                                                       
%FORMAT(10I8)                                                                   
      21      27      42      20      33      27      42      20      69      75
      81      37      78      75      81      37      84      90      93      39
%FLAG ANGLES_WITHOUT_HYDROGEN                                                   
%FORMAT(10I8)                                                                   
       0      24      21       1       0      24      30       2       0       3
      45       3       0       3       9       4       0       6      51       3
       0       6      12       5       3       0      24       6       3       0
       6       7       3      45      48       8       3       9      15       9
       3       9      57       9       6       0      24       6       6      51
      54       8       6      12      15      10       9       3      45      11
       9      15      12      12       9      57      60      13      12       6
      51      14      15       9      57      15      18      21      24      16
      18      21      27      17      21      24      30      18      21      27
      33      19      24      21      27      21      24      30      36      22
      27      33      39      17      27      33      36      23      30      36
      33      24      36      33      39      25      57      60      63      26
      57      60      66      27      60      63      84      28      60      63
      69      29      60      66      72      30      63      60      66      26
      63      84      87      31      63      84      90      32      63      69
      75      33      66      72      78      34      69      63      84      35
      69      75      78      36      72      78      75      38      87      84
      90      40
%FLAG DIHEDRALS_INC_HYDROGEN                                                    
%FORMAT(10I8)                                                                   
      18      21      27      42       8      18      21     -27      42       1
      24      21      27      42       1      36      33      27      42       1
      39      33      27      42       8      39      33     -27      42       1
      63      84      90      93      11      63      69      75      81       2
      72      78      75      81       2      87      84      90      93      12
      87      84     -90      93      11      21      33     -27     -42      14
%FLAG DIHEDRALS_WITHOUT_HYDROGEN                                                
%FORMAT(10I8)                                                                   
       0      24      21      18       1       0      24      21      27       1
       0      24      30      36       2       0       3      45      48       3
       0       3       9      15       4       0       3       9      57       4
       0       6      51      54       3       0       6     -12      15       2
       3       0      24      21       5       3       0     -24      21       6
       3       0      24      30       7       3       0       6      51       4
       3       0       6      12       4       3       9     -15      12       2
       3       9      57      60       2       6       0      24      21       5
       6       0     -24      21       6       6       0      24      30       7
       6       0       3      45       4       6       0       3       9       4
       6      12     -15       9       2      24       0       3       9       4
       9       3      45      48       3       9      57      60      63       2
       9      57      60      66       2      24       0       6      12       4
      12       6      51      54       3      12      15       9      57       2
      15       9       3      45       4      15       9      57      60       2
      15      12       6      51       2      18      21      24      30       1
      18      21      27      33       1      21      24      30      36       2
      21      27      33      39       1      21      27     -33      36       1
      24       0       3      45       4      24       0       6      51       4
      24      21      27      33       1      24      30     -36      33       2
      27      21      24      30       1      27      33     -36      30       2
      30      36      33      39       2      45       3       9      57       4
      57      60      63      84       9      57      60      63      69       9
      57      60      66      72       2      60      63      84      87      10
      60      63      84      90      10      60      63      69      75       2
      60      66      72      78       2      63      60      66      72       2
      63      69      75      78       2      66      60      63      84       9
      66      60      63      69       9      66      72      78      75       2
      69      63      84      87      10      69      63      84      90      10
      69      75      78      72       2      75      69      63      84       2
      24       0      -6      -3      13       0       9      -3     -45      13
      12       0      -6     -51      13      15      57      -9      -3      13
      24      27     -21     -18      13       0      24     -30     -21      14
      36      27     -33     -39      13      84      69     -63     -60      13
      63      87     -84     -90      14
%FLAG EXCLUDED_ATOMS_LIST                                                       
%FORMAT(10I8)                                                                   
       2       3       4       5       6       7       8       9      10      11
      13      16      17      18      19      20       3       4       5       6
       8       9      11      16      17      18      20      21       4       5
       6       8       9      11      16      18      19       5       6       9
      16      17      20      21      22      23       6       9      18      19
      20      16      18      20      21       8       9      10      11      12
      15       9      10      11      12      13      14      15      10      11
      12      13      15      16      18      11      12      13      14      15
      12      13      14      13      14      15      14      15      15       0
      17      20       0      19       0      21      22      23      24      25
      29      22      23      24      25      26      27      29      30      31
      23      24      25      26      27      28      29      30      31      32
      24      25      26      27      29      25      26      27      28      29
      30      31      26      27      28      27      28      29      28       0
      30      31      32      31      32      32       0
%FLAG HBOND_ACOEF                                                               
%FORMAT(5E16.8)                                                                 

%FLAG HBOND_BCOEF                                                               
%FORMAT(5E16.8)                                                                 

%FLAG HBCUT                                                                     
%FORMAT(5E16.8)                                                                 

%FLAG AMBER_ATOM_TYPE                                                           
%FORMAT(20a4)                                                                   
c2  c2  c2  ce  c1  c1  o   c   n   ns  c1  c   c1  o   hn  os  c1  os  c1  c1  
n3  c2  c1  c1  c1  n7  c1  hn  c   o   oh  ho  
%FLAG TREE_CHAIN_CLASSIFICATION                                                 
%FORMAT(20a4)                                                                   
BLA BLA BLA BLA BLA BLA BLA BLA BLA BLA BLA BLA BLA BLA BLA BLA BLA BLA BLA BLA 
BLA BLA BLA BLA BLA BLA BLA BLA BLA BLA BLA BLA 
%FLAG JOIN_ARRAY                                                                
%FORMAT(10I8)                                                                   
       0       0       0       0       0       0       0       0       0       0
       0       0       0       0       0       0       0       0       0       0
       0       0       0       0       0       0       0       0       0       0
       0       0
%FLAG IROTAT                                                                    
%FORMAT(10I8)                                                                   
       0       0       0       0       0       0       0       0       0       0
       0       0       0       0       0       0       0       0       0       0
       0       0       0       0       0       0       0       0       0       0
       0       0
%FLAG RADIUS_SET                                                                
%FORMAT(1a80)                                                                   
modified Bondi radii (mbondi)                                                   
%FLAG RADII                                                                     
%FORMAT(5E16.8)                                                                 
  1.70000000E+00  1.70000000E+00  1.70000000E+00  1.70000000E+00  1.70000000E+00
  1.70000000E+00  1.50000000E+00  1.70000000E+00  1.55000000E+00  1.55000000E+00
  1.70000000E+00  1.70000000E+00  1.70000000E+00  1.50000000E+00  1.30000000E+00
  1.50000000E+00  1.70000000E+00  1.50000000E+00  1.70000000E+00  1.70000000E+00
  1.55000000E+00  1.70000000E+00  1.70000000E+00  1.70000000E+00  1.70000000E+00
  1.55000000E+00  1.70000000E+00  1.30000000E+00  1.70000000E+00  1.50000000E+00
  1.50000000E+00  8.00000000E-01
%FLAG SCREEN                                                                    
%FORMAT(5E16.8)                                                                 
  7.20000000E-01  7.20000000E-01  7.20000000E-01  7.20000000E-01  7.20000000E-01
  7.20000000E-01  8.50000000E-01  7.20000000E-01  7.90000000E-01  7.90000000E-01
  7.20000000E-01  7.20000000E-01  7.20000000E-01  8.50000000E-01  8.50000000E-01
  8.50000000E-01  7.20000000E-01  8.50000000E-01  7.20000000E-01  7.20000000E-01
  7.90000000E-01  7.20000000E-01  7.20000000E-01  7.20000000E-01  7.20000000E-01
  7.90000000E-01  7.20000000E-01  8.50000000E-01  7.20000000E-01  8.50000000E-01
  8.50000000E-01  8.50000000E-01
%FLAG IPOL                                                                      
%FORMAT(1I8)                                                                    
       0
