%VERSION  VERSION_STAMP = V0001.000  DATE = 09/06/26  21:56:12                  
%FLAG TITLE                                                                     
%FORMAT(20a4)                                                                   
LIG                                                                             
%FLAG POINTERS                                                                  
%FORMAT(10I8)                                                                   
      37       9       1      40       2      60       7      94       0       0
     174       1      40      60      94      20      36      15      12       0
       0       0       0       0       0       0       0       0      37       0
       0
%FLAG ATOM_NAME                                                                 
%FORMAT(20a4)                                                                   
C1  C2  C3  C4  C5  C6  C7  C8  N1  C9  C10 C11 N2  O1  O2  C12 N3  N4  C13 C14 
C15 O3  H1  O4  C16 O5  C17 C18 C19 C20 C21 C22 C23 C24 C25 C26 C27 
%FLAG CHARGE                                                                    
%FORMAT(5E16.8)                                                                 
  2.43244016E+00  3.04230410E+00 -1.46800671E+00 -1.30903537E+00  1.23055192E+00
  1.24321642E+00  2.11588236E+00  2.11635614E+00 -3.58527397E+00 -2.51449518E-01
 -2.51449518E-01  6.67683294E+00 -1.90703658E+00 -4.39776988E+00 -4.59415161E+00
  5.91379235E+00 -3.09748122E+00 -4.13587899E+00  3.91323893E-01  5.40876131E+00
  2.64751797E-01 -4.76706301E+00  2.94005877E+00 -4.51286193E+00  1.66150931E+00
 -4.65477720E+00  4.79122578E+00 -6.44376973E-01 -6.44376973E-01 -6.44376973E-01
 -2.38748575E-01  2.40180847E+00 -6.15567516E-01 -6.15567516E-01 -1.36721917E-01
 -1.36721917E-01 -2.21218722E-02
%FLAG ATOMIC_NUMBER                                                             
%FORMAT(10I8)                                                                   
       6       6       6       6       6       6       6       6       7       6
       6       6       7       8       8       6       7       7       6       6
       6       8       1       8       6       8       6       6       6       6
       6       6       6       6       6       6       6
%FLAG MASS                                                                      
%FORMAT(5E16.8)                                                                 
  1.20100000E+01  1.20100000E+01  1.20100000E+01  1.20100000E+01  1.20100000E+01
  1.20100000E+01  1.20100000E+01  1.20100000E+01  1.40100000E+01  1.20100000E+01
  1.20100000E+01  1.20100000E+01  1.40100000E+01  1.60000000E+01  1.60000000E+01
  1.20100000E+01  1.40100000E+01  1.40100000E+01  1.20100000E+01  1.20100000E+01
  1.20100000E+01  1.60000000E+01  1.00800000E+00  1.60000000E+01  1.20100000E+01
  1.60000000E+01  1.20100000E+01  1.20100000E+01  1.20100000E+01  1.20100000E+01
  1.20100000E+01  1.20100000E+01  1.20100000E+01  1.20100000E+01  1.20100000E+01
  1.20100000E+01  1.20100000E+01
%FLAG ATOM_TYPE_INDEX                                                           
%FORMAT(10I8)                                                                   
       1       1       2       2       1       1       1       1       3       2
       2       1       4       5       5       1       3       6       2       1
       2       5       7       8       2       8       9       2       2       2
       2       1       2       2       2       2       2
%FLAG NUMBER_EXCLUDED_ATOMS                                                     
%FORMAT(10I8)                                                                   
      14      10      11       9       9       8       9       8       7       5
       4       6       4       2       6       7       6       5       3       3
       2       1       1       1       1       4       3       2       1       1
       5       5       4       3       2       1       1
%FLAG NONBONDED_PARM_INDEX                                                      
%FORMAT(10I8)                                                                   
       1       2       4       7      11      16      22      29      37       2
       3       5       8      12      17      23      30      38       4       5
       6       9      13      18      24      31      39       7       8       9
      10      14      19      25      32      40      11      12      13      14
      15      20      26      33      41      16      17      18      19      20
      21      27      34      42      22      23      24      25      26      27
      28      35      43      29      30      31      32      33      34      35
      36      44      37      38      39      40      41      42      43      44
      45
%FLAG RESIDUE_LABEL                                                             
%FORMAT(20a4)                                                                   
LIG 
%FLAG RESIDUE_POINTER                                                           
%FORMAT(10I8)                                                                   
       1
%FLAG BOND_FORCE_CONSTANT                                                       
%FORMAT(5E16.8)                                                                 
  3.13870000E+02  4.36000000E+02  4.66850000E+02  3.50470000E+02  3.22230000E+02
  4.12830000E+02  3.22020000E+02  3.17460000E+02  3.97760000E+02  5.90600000E+02
  3.51310000E+02  3.36070000E+02  4.28900000E+02  4.73590000E+02  6.99130000E+02
  2.50880000E+02  4.15540000E+02  2.82270000E+02  2.84580000E+02  3.36100000E+02
%FLAG BOND_EQUIL_VALUE                                                          
%FORMAT(5E16.8)                                                                 
  1.40010000E+00  1.33790000E+00  1.31850000E+00  1.36280000E+00  1.42720000E+00
  1.35360000E+00  1.42740000E+00  1.39670000E+00  1.33100000E+00  1.21900000E+00
  1.36210000E+00  1.37980000E+00  1.33000000E+00  1.01320000E+00  1.20950000E+00
  1.50560000E+00  1.31410000E+00  1.42730000E+00  1.46560000E+00  1.41440000E+00
%FLAG ANGLE_FORCE_CONSTANT                                                      
%FORMAT(5E16.8)                                                                 
  7.86500000E+01  6.81000000E+01  8.00400000E+01  6.88500000E+01  5.32200000E+01
  6.77900000E+01  9.26500000E+01  6.79500000E+01  6.22000000E+01  6.22000000E+01
  8.09800000E+01  6.90300000E+01  6.43200000E+01  6.33100000E+01  7.75500000E+01
  6.22400000E+01  8.66800000E+01  8.75600000E+01  1.14280000E+02  8.94300000E+01
  6.22400000E+01  1.01260000E+02  8.72100000E+01  6.96000000E+01  7.72200000E+01
  5.73700000E+01  7.40500000E+01  7.80000000E+01  6.81300000E+01  5.79000000E+01
  7.58200000E+01  7.89600000E+01  6.33700000E+01  6.37200000E+01  6.44800000E+01
  7.48600000E+01
%FLAG ANGLE_EQUIL_VALUE                                                         
%FORMAT(5E16.8)                                                                 
  2.09771213E+00  2.07484830E+00  2.12685914E+00  1.98636007E+00  3.12536243E+00
  2.16927066E+00  2.04674849E+00  2.18637489E+00  2.10783504E+00  2.10783504E+00
  2.10608971E+00  2.06996138E+00  2.26194768E+00  2.13768018E+00  2.15234096E+00
  2.55551219E+00  2.13925098E+00  1.91864127E+00  1.09659084E+00  2.02144121E+00
  2.55551219E+00  2.15024656E+00  2.14762857E+00  2.04273423E+00  2.23489507E+00
  2.04657396E+00  1.99613392E+00  3.09237569E+00  2.00887483E+00  3.14159400E+00
  2.22843734E+00  1.90398050E+00  1.92614619E+00  2.04517769E+00  2.26561287E+00
  2.02667720E+00
%FLAG DIHEDRAL_FORCE_CONSTANT                                                   
%FORMAT(5E16.8)                                                                 
  2.50000000E+00  0.00000000E+00  1.05000000E+00  1.53000000E+00  1.57000000E+00
  6.50000000E-01  6.65000000E+00  4.00000000E+00  1.47000000E+00  2.70000000E+00
  3.83333333E-01  1.40000000E+00  2.00000000E+00  1.05000000E+01  1.10000000E+00
%FLAG DIHEDRAL_PERIODICITY                                                      
%FORMAT(5E16.8)                                                                 
  2.00000000E+00  2.00000000E+00  2.00000000E+00  1.00000000E+00  2.00000000E+00
  2.00000000E+00  2.00000000E+00  2.00000000E+00  3.00000000E+00  2.00000000E+00
  3.00000000E+00  1.00000000E+00  1.00000000E+00  2.00000000E+00  2.00000000E+00
%FLAG DIHEDRAL_PHASE                                                            
%FORMAT(5E16.8)                                                                 
  3.14159400E+00  3.14159400E+00  3.14159400E+00  3.14159400E+00  3.14159400E+00
  3.14159400E+00  3.14159400E+00  3.14159400E+00  3.14159400E+00  3.14159400E+00
  0.00000000E+00  3.14159400E+00  0.00000000E+00  3.14159400E+00  3.14159400E+00
%FLAG SCEE_SCALE_FACTOR                                                         
%FORMAT(5E16.8)                                                                 
  1.20000000E+00  1.20000000E+00  1.20000000E+00  1.20000000E+00  1.20000000E+00
  1.20000000E+00  1.20000000E+00  1.20000000E+00  1.20000000E+00  1.20000000E+00
  1.20000000E+00  1.20000000E+00  1.20000000E+00  0.00000000E+00  0.00000000E+00
%FLAG SCNB_SCALE_FACTOR                                                         
%FORMAT(5E16.8)                                                                 
  2.00000000E+00  2.00000000E+00  2.00000000E+00  2.00000000E+00  2.00000000E+00
  2.00000000E+00  2.00000000E+00  2.00000000E+00  2.00000000E+00  2.00000000E+00
  2.00000000E+00  2.00000000E+00  2.00000000E+00  0.00000000E+00  0.00000000E+00
%FLAG SOLTY                                                                     
%FORMAT(5E16.8)                                                                 
  0.00000000E+00  0.00000000E+00  0.00000000E+00  0.00000000E+00  0.00000000E+00
  0.00000000E+00  0.00000000E+00  0.00000000E+00  0.00000000E+00  0.00000000E+00
  0.00000000E+00  0.00000000E+00
%FLAG LENNARD_JONES_ACOEF                                                       
%FORMAT(5E16.8)                                                                 
  6.96551276E+05  1.18640578E+06  2.00671338E+06  7.01106848E+05  1.20132739E+06
  7.02078680E+05  7.10207765E+05  1.20705609E+06  7.16178718E+05  7.23647490E+05
  5.17507491E+05  8.92208123E+05  5.15491878E+05  5.29641935E+05  3.76435470E+05
  6.99381362E+05  1.19359607E+06  7.02755693E+05  7.13532671E+05  5.17814271E+05
  7.01825028E+05  1.71458823E+03  3.37137075E+03  1.52360475E+03  1.82809059E+03
  9.87857350E+02  1.65195713E+03  1.34728399E-01  4.46121722E+05  7.65280989E+05
  4.46307018E+05  4.55871651E+05  3.27367585E+05  4.47026838E+05  9.46795083E+02
  2.83662575E+05  8.43969952E+05  1.43239677E+06  8.52084164E+05  8.59569453E+05
  6.30925504E+05  8.48258258E+05  2.23577481E+03  5.42502534E+05  1.02073671E+06
%FLAG LENNARD_JONES_BCOEF                                                       
%FORMAT(5E16.8)                                                                 
  5.24668528E+02  7.71958727E+02  1.13185062E+03  5.97113873E+02  8.81180204E+02
  6.77820248E+02  5.11427129E+02  7.51664026E+02  5.82583725E+02  4.98353106E+02
  4.98871431E+02  7.38469198E+02  5.64804067E+02  4.87196412E+02  4.69350655E+02
  5.48900066E+02  8.08414196E+02  6.24158704E+02  5.35211915E+02  5.21008860E+02
  5.74088001E+02  1.46824710E+01  2.32108730E+01  1.57004457E+01  1.46352678E+01
  1.22938581E+01  1.50468782E+01  7.34107347E-02  3.88758656E+02  5.74027680E+02
  4.41089616E+02  3.79365004E+02  3.67361018E+02  4.06301077E+02  1.01016461E+01
  2.87011518E+02  5.90251928E+02  8.66911122E+02  6.72777963E+02  5.75038595E+02
  5.62969425E+02  6.17825399E+02  1.71355763E+01  4.38146883E+02  6.63431737E+02
%FLAG BONDS_INC_HYDROGEN                                                        
%FORMAT(10I8)                                                                   
      51      66      14
%FLAG BONDS_WITHOUT_HYDROGEN                                                    
%FORMAT(10I8)                                                                   
       0      48       1       0       3       2       0       6       3       3
      69       4       3       9       3       6      12       5       9      15
       5      12      18       6      12      15       7      15      21       6
      18      24       1      18      27       3      21      30       3      21
      24       1      24      33       8      27      36       9      30      36
       9      33      39      10      33      75      11      36      90       9
      42      45      10      45      48       8      45      51      12      48
      54      13      51      57      12      54      60      15      57      63
      10      57      60      16      69      72      17      75      78      18
      78      81      19      78      84      19      78      87      19      90
      93      20      93      96      20      93      99      20      96     102
      15      99     105      15     102     108      15     105     108      15
%FLAG ANGLES_INC_HYDROGEN                                                       
%FORMAT(10I8)                                                                   
      45      51      66      26      57      51      66      26
%FLAG ANGLES_WITHOUT_HYDROGEN                                                   
%FORMAT(10I8)                                                                   
       0      48      45       1       0      48      54       2       0       3
      69       3       0       3       9       4       0       6      12       5
       3       0      48       6       3       0       6       4       3      69
      72       7       3       9      15       5       6       0      48       8
       6      12      18       9       6      12      15      10       9       3
      69      11       9      15      12      10       9      15      21       9
      12      18      24      12      12      18      27      13      12      15
      21      14      15      12      18      14      15      21      30      13
      15      21      24      12      18      24      21      15      18      24
      33       1      18      27      36      16      21      30      36      16
      21      24      33       1      24      18      27       8      24      21
      30       8      24      33      39      17      24      33      75      18
      27      36      30      19      27      36      90      19      30      36
      90      19      33      75      78      20      36      90      93      21
      39      33      75      22      42      45      48      17      42      45
      51      23      45      48      54      24      45      51      57      25
      48      45      51      27      48      54      60      28      51      57
      63      23      51      57      60      29      54      60      57      30
      60      57      63      31      75      78      81      32      75      78
      84      32      75      78      87      32      81      78      84      33
      81      78      87      33      84      78      87      33      90      93
      96      34      90      93      99      34      93      96     102      35
      93      99     105      35      96      93      99      34      96     102
     108      36      99     105     108      36     102     108     105      36
%FLAG DIHEDRALS_INC_HYDROGEN                                                    
%FORMAT(10I8)                                                                   
      42      45      51      66      13      42      45     -51      66       1
      48      45      51      66       1      60      57      51      66       1
      63      57      51      66      13      63      57     -51      66       1
      45      57     -51     -66      15
%FLAG DIHEDRALS_WITHOUT_HYDROGEN                                                
%FORMAT(10I8)                                                                   
       0      48      45      42       1       0      48      45      51       1
       0      48      54      60       2       0       3      69      72       3
       0       3       9      15       2       0       6      12      18       2
       0       6     -12      15       2       3       0      48      45       4
       3       0     -48      45       5       3       0      48      54       6
       3       0       6      12       2       3       9     -15      12       2
       3       9      15      21       2       6       0      48      45       6
       6       0      48      54       6       6       0       3      69       7
       6       0       3       9       7       6      12      18      24       7
       6      12      18      27       7       6      12     -15       9       8
       6      12      15      21       8      48       0       3       9       7
       9       3      69      72       3       9      15      12      18       8
       9      15      21      30       7       9      15      21      24       7
      48       0       6      12       2      12      18     -24      21       6
      12      18      24      33       6      12      18      27      36       2
      12      15      21      30       7      12      15     -21      24       9
      15      12     -18      24       9      15      12      18      27       7
      15       9       3      69       2      15      21      30      36       2
      15      21     -24      18       6      15      21      24      33       6
      18      12     -15      21       8      18      24      21      30       6
      18      24      33      39       1      18      24      33      75       1
      18      27     -36      30       2      18      27      36      90       2
      21      30      36      27       2      21      30      36      90       2
      21      24     -18      27       6      21      24      33      39       1
      21      24      33      75       1      24      18      27      36       2
      24      21     -30      36       2      24      33      75      78      10
      27      18      24      33       6      27      36      90      93       2
      30      21      24      33       6      30      36      90      93       2
      33      75      78      81      11      33      75      78      84      11
      33      75      78      87      11      36      90      93      96       2
      36      90      93      99       2      39      33      75      78      12
      39      33     -75      78      10      42      45      48      54       1
      42      45      51      57       1      45      48      54      60       2
      45      51      57      63       1      45      51     -57      60       1
      48       0       3      69       7      48      45      51      57       1
      48      54     -60      57       2      51      45      48      54       1
      51      57     -60      54       2      54      60      57      63       2
      90      93      96     102       2      90      93      99     105       2
      93      96     102     108       2      93      99    -105     108       2
      96      93      99     105       2      96     102    -108     105       2
      99      93      96     102       2      99     105    -108     102       2
      48       0      -3      -6      14       9       0      -3     -69      14
       6      18     -12     -15      14       9      21     -15     -12      14
      27      12     -18     -24      14      30      15     -21     -24      14
      33      18     -24     -21      15      24      39     -33     -75      15
      48      51     -45     -42      14       0      48     -54     -45      15
      60      51     -57     -63      14      90      96     -93     -99      14
%FLAG EXCLUDED_ATOMS_LIST                                                       
%FORMAT(10I8)                                                                   
       2       3       4       5       6       7      15      16      17      18
      19      21      24      25       3       4       5       6       8      16
      17      19      24      25       4       5       6       7       8       9
      10      16      17      19      24       5       6       7       8       9
      11      17      24      25       6       7       8       9      10      11
      12      13      17       7       8       9      10      11      12      13
      24       8       9      10      11      12      13      14      26      31
       9      10      11      12      13      14      26      31      10      11
      12      13      14      26      27      11      12      13      31      32
      12      13      31      32      14      26      27      28      29      30
      31      32      33      34      26      27      16      17      18      19
      20      23      17      18      19      20      21      22      23      18
      19      20      21      23      24      19      20      21      22      23
      20      21      22      21      22      23      22      23      23       0
      25       0      27      28      29      30      28      29      30      29
      30      30       0      32      33      34      35      36      33      34
      35      36      37      34      35      36      37      35      36      37
      36      37      37       0
%FLAG HBOND_ACOEF                                                               
%FORMAT(5E16.8)                                                                 

%FLAG HBOND_BCOEF                                                               
%FORMAT(5E16.8)                                                                 

%FLAG HBCUT                                                                     
%FORMAT(5E16.8)                                                                 

%FLAG AMBER_ATOM_TYPE                                                           
%FORMAT(20a4)                                                                   
c2  c2  c1  c1  cc  cc  c2  c2  n   c1  c1  c   n3  o   o   c   n   ns  c1  c   
c1  o   hn  os  c1  os  c3  c1  c1  c1  c1  ce  c1  c1  c1  c1  c1  
%FLAG TREE_CHAIN_CLASSIFICATION                                                 
%FORMAT(20a4)                                                                   
BLA BLA BLA BLA BLA BLA BLA BLA BLA BLA BLA BLA BLA BLA BLA BLA BLA BLA BLA BLA 
BLA BLA BLA BLA BLA BLA BLA BLA BLA BLA BLA BLA BLA BLA BLA BLA BLA 
%FLAG JOIN_ARRAY                                                                
%FORMAT(10I8)                                                                   
       0       0       0       0       0       0       0       0       0       0
       0       0       0       0       0       0       0       0       0       0
       0       0       0       0       0       0       0       0       0       0
       0       0       0       0       0       0       0
%FLAG IROTAT                                                                    
%FORMAT(10I8)                                                                   
       0       0       0       0       0       0       0       0       0       0
       0       0       0       0       0       0       0       0       0       0
       0       0       0       0       0       0       0       0       0       0
       0       0       0       0       0       0       0
%FLAG RADIUS_SET                                                                
%FORMAT(1a80)                                                                   
modified Bondi radii (mbondi)                                                   
%FLAG RADII                                                                     
%FORMAT(5E16.8)                                                                 
  1.70000000E+00  1.70000000E+00  1.70000000E+00  1.70000000E+00  1.70000000E+00
  1.70000000E+00  1.70000000E+00  1.70000000E+00  1.55000000E+00  1.70000000E+00
  1.70000000E+00  1.70000000E+00  1.55000000E+00  1.50000000E+00  1.50000000E+00
  1.70000000E+00  1.55000000E+00  1.55000000E+00  1.70000000E+00  1.70000000E+00
  1.70000000E+00  1.50000000E+00  1.30000000E+00  1.50000000E+00  1.70000000E+00
  1.50000000E+00  1.70000000E+00  1.70000000E+00  1.70000000E+00  1.70000000E+00
  1.70000000E+00  1.70000000E+00  1.70000000E+00  1.70000000E+00  1.70000000E+00
  1.70000000E+00  1.70000000E+00
%FLAG SCREEN                                                                    
%FORMAT(5E16.8)                                                                 
  7.20000000E-01  7.20000000E-01  7.20000000E-01  7.20000000E-01  7.20000000E-01
  7.20000000E-01  7.20000000E-01  7.20000000E-01  7.90000000E-01  7.20000000E-01
  7.20000000E-01  7.20000000E-01  7.90000000E-01  8.50000000E-01  8.50000000E-01
  7.20000000E-01  7.90000000E-01  7.90000000E-01  7.20000000E-01  7.20000000E-01
  7.20000000E-01  8.50000000E-01  8.50000000E-01  8.50000000E-01  7.20000000E-01
  8.50000000E-01  7.20000000E-01  7.20000000E-01  7.20000000E-01  7.20000000E-01
  7.20000000E-01  7.20000000E-01  7.20000000E-01  7.20000000E-01  7.20000000E-01
  7.20000000E-01  7.20000000E-01
%FLAG IPOL                                                                      
%FORMAT(1I8)                                                                    
       0
