Cpptraj Generated Restart                                                       
   28  4.0000001E-01
  84.6585922 154.6308441  14.7146578  85.1377258 153.5139465  13.9874496
  83.7513504 153.5714417  14.4067011  85.1501160 152.2015991  13.2488747
  82.9371185 152.5975800  14.0946207  83.7118073 151.8436127  13.5206308
  84.7727356 155.9961700  12.1922998  84.7653961 156.6859436  13.2340145
  84.4945602 155.9906464  14.4999733  84.9771729 158.1171265  13.1842976
  84.6293182 156.9040375  15.4091911  85.0015259 158.9884186  14.2882214
  84.8180618 158.0810852  15.4517336  85.0774078 160.2166748  14.1955929
  84.9078293 158.5591278  12.2752304  85.9929657 151.8038940  12.2496147
  86.2415466 150.9472809  11.2258244  87.2934723 149.9578705  11.4285650
  86.8991623 152.0931702  10.9110556  88.6188736 150.1378937  11.0328865
  87.8961258 152.7302856  10.5918350  89.7647247 150.8923035  10.5774622
  88.7833710 151.9291687  10.5824871  90.0409317 150.7253876   9.6103907
  86.9934845 148.6892548  12.1009970  87.8704605 147.8512268  12.2238789
  85.7500610 148.2536469  12.5869207  85.1123810 148.9259491  12.2917175
