default_name
  6225
  89.6570000 180.6350000  24.0910000  90.8420000 180.5960000  23.9260000
  89.4670000 179.7010000  24.8210000  89.6020000 181.4960000  24.9230000
  88.7850000 180.5840000  22.9180000  87.6860000 180.4380000  23.3640000
  88.8190000 181.9190000  22.1450000  88.2180000 181.8700000  21.1200000
  89.9410000 182.2090000  21.8520000  88.3830000 183.1780000  22.9180000
  87.2250000 183.4380000  22.8060000  88.6210000 183.4540000  24.0460000
  89.1820000 184.7920000  22.5930000  89.1180000 185.1450000  20.8150000
  90.2920000 185.3260000  20.7400000  88.7510000 184.5490000  19.8580000
  88.5050000 186.1630000  20.9190000  89.1270000 179.3860000  22.0030000
  90.2790000 178.9350000  22.0010000  88.1130000 178.8790000  21.2350000
  87.1430000 179.5280000  21.0130000  88.2180000 177.7370000  20.3050000
  89.0490000 177.0870000  20.8360000  86.8780000 176.9030000  20.2300000
  85.9220000 177.6230000  20.2310000  86.6900000 176.1370000  18.8940000
  86.9010000 174.9790000  18.7870000  85.5060000 176.0910000  18.6930000
  86.9570000 176.7110000  17.8830000  86.7590000 175.9100000  21.4180000
  85.6600000 175.4390000  21.3510000  87.7490000 175.2740000  21.5690000
  86.5640000 176.5130000  22.8550000  85.6050000 176.3640000  23.5460000
  87.4090000 176.2100000  23.6500000  86.5340000 177.7080000  22.8770000
  88.7400000 178.1980000  18.9410000  88.1720000 179.1060000  18.3390000
  89.8310000 177.5770000  18.4700000  90.6630000 177.0150000  19.0830000
  90.3990000 177.9120000  17.1750000  90.0170000 178.9480000  16.7200000
  91.9330000 178.0920000  17.2230000  92.2120000 178.9910000  17.9530000
  92.3210000 178.5460000  16.1850000  92.7950000 176.8790000  17.4750000
  92.3400000 175.7340000  17.5410000  94.0930000 177.1130000  17.5960000
  94.5520000 177.6380000  18.5540000  94.7930000 177.3230000  16.6550000
  89.9500000 176.9360000  16.0660000  90.0460000 177.3080000  14.8940000
  89.4310000 175.7210000  16.4210000  89.2910000 175.3430000  17.5280000
  88.9610000 174.7160000  15.4470000  89.9870000 174.4830000  14.8840000
  88.3660000 173.4570000  16.1410000  87.6020000 173.5990000  17.0110000
  89.3690000 172.9080000  16.4810000  87.7260000 172.4120000  15.2290000
  88.5080000 171.4820000  14.5440000  89.6480000 171.6590000  14.2650000
  87.9190000 170.5210000  13.7070000  88.7250000 169.7990000  13.2340000
  86.5480000 170.4910000  13.5500000  86.1200000 169.4990000  13.0760000
  85.7570000 171.3960000  14.2260000  84.5990000 171.5080000  14.0560000
  86.3430000 172.3510000  15.0710000  85.7140000 173.2890000  15.4300000
  87.9470000 175.3320000  14.4730000  87.0930000 176.1280000  14.8950000
  88.0640000 174.9630000  13.1720000  89.1150000 174.5970000  12.7520000
  87.1830000 175.4280000  12.0940000  87.1170000 176.6090000  12.2590000
  87.9050000 175.3520000  10.7260000  88.6760000 176.2640000  10.8660000
  88.6760000 174.6410000  10.1600000  87.2250000 176.0520000   9.5530000
  86.1370000 176.6440000   9.7550000  87.7940000 176.0330000   8.4420000
  85.8280000 174.6670000  12.0990000  85.7170000 173.5600000  11.5590000
  84.7990000 175.2990000  12.7060000  85.0090000 176.4480000  12.9200000
  83.4390000 174.7720000  12.8820000  83.6170000 173.7530000  13.4590000
  82.5900000 175.7290000  13.7250000  81.4240000 175.6040000  13.9320000
  83.1010000 175.8640000  15.1550000  84.2460000 175.9750000  15.4740000
  82.6970000 176.8760000  15.6570000  82.6750000 175.1220000  15.9870000
  82.5340000 177.0020000  13.0760000  83.1570000 177.8720000  13.5870000
  82.7300000 174.4070000  11.5700000  81.6600000 173.7880000  11.5970000
  83.3170000 174.7780000  10.4330000  83.4510000 175.9530000  10.5250000
  82.7670000 174.4440000   9.1290000  81.5900000 174.5510000   9.0390000
  83.1860000 175.4760000   8.0920000  82.9510000 176.6510000   8.1160000
  82.8650000 175.2340000   6.9670000  84.5920000 175.4520000   7.9200000
  85.2080000 175.4780000   8.9100000  83.2210000 173.0330000   8.7240000
  82.4520000 172.3300000   8.0900000  84.4380000 172.6090000   9.1300000
  85.2820000 173.4270000   9.1940000  85.0100000 171.2870000   8.8380000
  85.2000000 171.3140000   7.6610000  86.3400000 171.0510000   9.5790000
  86.5130000 169.9050000   9.3020000  86.1930000 171.1720000  10.7440000
  87.5390000 171.8960000   9.1910000  87.4190000 173.0430000   8.9000000
  88.6080000 171.7570000  10.2150000  88.3310000 171.4430000  11.3260000
  89.3820000 172.6500000  10.4320000  89.4340000 170.9590000   9.8740000
  88.1040000 171.4830000   7.8500000  87.7650000 172.2030000   6.9490000
  89.2850000 171.5620000   7.6360000  87.8580000 170.4340000   7.3320000
  84.0660000 170.0780000   9.0790000  84.0090000 169.2200000   8.1930000
  83.3340000 169.9310000  10.2170000  83.2400000 170.7830000  11.4210000
  84.2840000 171.2130000  11.7930000  82.5270000 171.6970000  11.2290000
  82.8510000 169.8180000  12.4770000  83.7450000 169.0810000  12.7380000
  82.4160000 170.2600000  13.4880000  81.9580000 168.8370000  11.8050000
  80.7910000 169.1070000  11.7990000  82.0490000 167.7140000  12.1150000
  82.4620000 168.7490000  10.3550000  83.1430000 167.8030000  10.1070000
  81.3230000 168.6960000   9.3230000  81.1580000 167.6680000   8.6830000
  80.6120000 169.8250000   9.1150000  81.0860000 170.7590000   9.6390000
  79.4730000 170.0360000   8.1940000  78.5690000 169.3170000   8.4900000
  79.0090000 171.5300000   8.2470000  78.0730000 171.6040000   7.4990000
  79.0190000 172.1150000   9.6360000  78.3930000 173.1230000   9.5030000
  80.0730000 172.5010000  10.0030000  78.1850000 171.3590000  10.0190000
  79.8570000 172.3420000   7.4390000  79.8400000 173.4780000   7.6820000
  79.7340000 169.5910000   6.7200000  78.7930000 169.2380000   6.0040000
  81.0080000 169.6320000   6.2840000  81.7850000 170.3300000   6.8370000
  81.4670000 169.3220000   4.9290000  80.6170000 169.5930000   4.1380000
  82.6150000 170.2530000   4.5440000  83.0800000 170.0790000   3.4570000
  82.2230000 171.3780000   4.4020000  83.7600000 170.0290000   5.3490000
  84.4130000 170.9690000   5.5420000  81.8570000 167.8400000   4.6910000
  82.2270000 167.4810000   3.5690000  81.7560000 166.9950000   5.7290000
  82.2160000 167.4490000   6.7200000  82.0050000 165.5480000   5.7210000
  82.3680000 165.2310000   6.8080000  80.7310000 164.8010000   5.3190000
  80.3570000 165.2380000   4.2820000  80.8060000 163.6180000   5.3220000
  79.6200000 165.0460000   6.2770000  79.4530000 164.2590000   7.3970000
  80.4020000 164.2720000   8.0730000  78.4300000 164.7800000   8.0560000
  77.9920000 165.0440000   9.1260000  77.9410000 165.8490000   7.4330000
  78.7070000 166.0430000   6.3050000  78.3680000 166.9340000   5.6080000
  83.2190000 165.1040000   4.8720000  83.1130000 164.1970000   4.0460000
  84.3800000 165.7380000   5.1200000  84.4520000 166.4740000   6.0470000
  85.6480000 165.4750000   4.4320000  85.4330000 165.7590000   3.2930000
  86.7520000 166.3560000   4.9860000  87.7790000 165.7870000   4.7710000
  86.7880000 166.5530000   6.1570000  86.8290000 167.7050000   4.3310000
  85.9860000 168.5390000   4.2650000  87.3650000 167.7930000   3.2680000
  87.9030000 168.8320000   5.2640000  89.5600000 167.9070000   5.2260000
  90.0150000 168.6280000   4.3880000  90.0160000 168.2360000   6.2670000
  90.0160000 166.8410000   4.9610000  86.1070000 164.0350000   4.4460000
  86.7630000 163.6200000   3.4910000  85.7880000 163.2750000   5.5340000
  86.1130000 163.9050000   6.4840000  86.1400000 161.8480000   5.7010000
  87.3050000 161.6500000   5.5210000  85.6840000 161.3220000   7.0840000
  86.0330000 160.2250000   7.3450000  86.4520000 161.9640000   7.7350000
  84.1890000 161.3840000   7.2950000  83.5830000 162.5280000   7.7960000
  84.2850000 163.4490000   8.0510000  82.2020000 162.6010000   7.9630000
  82.2170000 163.4550000   8.7820000  81.4130000 161.5190000   7.6230000
  80.0570000 161.5670000   7.8040000  79.7480000 162.0880000   8.8090000
  81.9940000 160.3730000   7.1140000  81.8370000 159.2400000   7.4230000
  83.3750000 160.3070000   6.9640000  83.8720000 159.4310000   6.3580000
  85.5400000 161.0140000   4.5650000  86.0880000 159.9840000   4.1920000
  84.4180000 161.5040000   4.0040000  83.9230000 162.2970000   4.7190000
  83.6500000 160.9250000   2.8980000  83.9190000 159.7640000   2.9400000
  82.2840000 161.6300000   2.8420000  82.3940000 162.4010000   1.9370000
  82.0430000 162.1300000   3.8920000  81.0290000 160.8110000   2.6980000
  80.9470000 160.5110000   1.5500000  81.0470000 159.5580000   3.5580000
  80.0380000 158.9720000   3.3110000  81.2470000 159.5820000   4.7270000
  81.8830000 158.7450000   3.2880000  79.8600000 161.6350000   3.0940000
  80.0710000 162.6410000   2.4880000  78.9150000 161.1450000   2.5520000
  79.6680000 161.8520000   4.2400000  84.4050000 161.1470000   1.5940000
  84.0980000 160.5120000   0.5810000  85.3930000 162.0390000   1.6530000
  85.1270000 163.0900000   2.0950000  86.2360000 162.4130000   0.5310000
  87.3250000 162.5640000   1.0040000  86.3980000 161.5040000  -0.2070000
  85.6710000 163.6150000  -0.1730000  84.4650000 163.8770000  -0.0880000
  86.5450000 164.3750000  -0.8430000  87.6980000 164.2470000  -0.6020000
  86.1330000 165.5250000  -1.6570000  85.0830000 165.9610000  -1.3040000
  87.1920000 166.6240000  -1.6060000  87.4330000 167.1530000  -0.5700000
  86.7110000 167.5890000  -2.0900000  88.4450000 166.1360000  -2.0600000
  89.3630000 166.7500000  -1.6380000  85.9490000 164.9800000  -3.0940000
  85.9050000 163.7550000  -3.2810000  85.8650000 165.8640000  -4.0980000
  85.8630000 167.0520000  -4.1510000  85.6920000 165.4690000  -5.5010000
  85.4870000 166.3910000  -6.2340000  86.9670000 164.7640000  -6.0550000
  87.3850000 163.7710000  -5.5540000  87.9060000 165.4970000  -5.9500000
  87.0370000 164.5720000  -7.5660000  86.4490000 165.4050000  -8.3050000
  87.7390000 163.6320000  -8.0140000  84.3860000 164.6400000  -5.6770000
  84.4030000 163.5080000  -6.1780000  83.2630000 165.2100000  -5.1990000
  83.3020000 166.3650000  -4.9200000  81.9340000 164.6140000  -5.3060000
  82.1970000 163.5940000  -5.8530000  81.2180000 164.5310000  -3.9450000
  80.3140000 164.5870000  -3.1830000  81.3230000 165.7210000  -3.8910000
  81.7700000 163.4480000  -3.0720000  82.2120000 162.3600000  -2.9490000
  82.6290000 164.0900000  -2.5430000  80.9010000 163.1930000  -1.5110000
  79.6860000 162.1320000  -2.0020000  78.7710000 162.8730000  -1.8690000
  79.8540000 161.5820000  -0.9570000  79.9150000 161.3870000  -2.8810000
  81.1050000 165.4070000  -6.2920000  81.2340000 166.6320000  -6.3640000
  80.2530000 164.6950000  -7.0530000  80.5050000 163.5800000  -7.2280000
  79.3350000 165.2520000  -8.0400000  80.1030000 165.7670000  -8.7970000
  78.6610000 164.1260000  -8.8520000  79.5700000 163.4490000  -9.2270000
  77.7190000 163.6170000  -8.3430000  77.9910000 164.6010000 -10.1330000
  77.1950000 165.4880000 -10.1270000  78.7950000 165.0590000 -10.8940000
  77.4830000 163.5510000 -11.1100000  77.8800000 162.3650000 -11.0020000
  76.7110000 163.9370000 -12.0190000  78.3060000 166.1050000  -7.2970000
  77.6360000 165.6170000  -6.3820000  78.2330000 167.3950000  -7.6470000
  78.8580000 167.8580000  -8.5450000  77.3130000 168.3080000  -6.9810000
  77.0170000 167.8370000  -5.9340000  78.0070000 169.6120000  -6.5650000
  77.2510000 170.4890000  -6.2570000  78.5970000 170.1760000  -7.4360000
  78.9640000 169.4100000  -5.4050000  79.9230000 168.7300000  -5.5880000
  78.4560000 169.1780000  -4.3490000  79.7800000 170.6300000  -5.0430000
  79.2970000 171.4400000  -4.2190000  80.9070000 170.7710000  -5.5720000
  76.0710000 168.5720000  -7.7850000  76.1410000 168.7840000  -8.9940000
  74.9270000 168.5210000  -7.1110000  75.0290000 169.1840000  -6.1300000
  73.6440000 168.7990000  -7.7240000  73.9000000 168.8290000  -8.8900000
  72.7360000 167.5680000  -7.7850000  71.9270000 167.7910000  -8.6270000
  72.3190000 167.4090000  -6.6910000  73.3900000 166.3090000  -8.2940000
  73.5600000 166.0950000  -9.6560000  73.2120000 166.7170000 -10.6130000
  74.1740000 164.9270000 -10.1250000  74.2990000 164.8850000 -11.3020000
  74.5890000 163.9610000  -9.2330000  74.9510000 163.0090000  -9.8370000
  74.4250000 164.1590000  -7.8820000  75.2000000 163.8890000  -7.0430000
  73.8200000 165.3270000  -7.4120000  74.0230000 165.5660000  -6.2710000
  72.9900000 169.9660000  -6.9900000  72.8660000 169.9850000  -5.7560000
  72.6180000 170.9550000  -7.8010000  72.8880000 170.6240000  -8.8950000
  72.0250000 172.2570000  -7.5090000  72.3620000 172.6960000  -6.4580000
  72.5420000 173.2550000  -8.5710000  71.8980000 174.2380000  -8.7410000
  73.5890000 173.7040000  -8.2010000  72.7280000 172.6230000  -9.9310000
  73.8250000 171.8080000 -10.2110000  74.9490000 172.1420000 -10.0070000
  73.6630000 171.4070000 -11.4610000  74.3800000 170.9950000 -12.3150000
  72.5440000 171.9060000 -11.9970000  71.9310000 172.6700000 -11.0270000
  71.2070000 173.4200000 -11.6000000  70.4800000 172.1960000  -7.4970000
  69.8750000 172.4940000  -6.4560000  69.8900000 171.7910000  -8.6460000
  70.2890000 171.2540000  -9.6390000  68.4550000 171.6410000  -8.9030000
  68.1970000 172.7570000  -9.2370000  67.9980000 171.0640000  -9.8460000
  67.6780000 171.0800000  -7.7290000  68.1040000 170.1020000  -7.1060000
  66.5600000 171.7280000  -7.3880000  66.0240000 172.4960000  -8.1180000
  65.7480000 171.3340000  -6.2440000  66.3650000 170.4410000  -5.7730000
  65.6810000 172.4700000  -5.1930000  64.8840000 172.1160000  -4.3990000
  65.1210000 173.4350000  -5.6260000  67.0300000 173.0540000  -4.7750000
  66.8320000 174.1320000  -4.2890000  67.6490000 173.3660000  -5.7270000
  67.6630000 172.2900000  -3.6350000  67.8140000 172.5400000  -2.4760000
  66.6070000 171.8550000  -3.3060000  69.1280000 172.3290000  -3.6790000
  69.6070000 171.3340000  -4.1130000  69.8840000 173.2100000  -3.0310000
  69.3250000 174.1540000  -2.2820000  69.6730000 174.3120000  -1.1550000
  68.8670000 175.2150000  -2.5680000  71.2070000 173.1560000  -3.1290000
  71.9860000 172.3220000  -2.8000000  71.8450000 174.1390000  -3.3290000
  64.3460000 170.8930000  -6.6500000  63.6890000 171.5560000  -7.4480000
  63.8970000 169.7710000  -6.0840000  64.5810000 169.0230000  -5.4830000
  62.5600000 169.2100000  -6.2590000  62.0500000 169.6780000  -7.2320000
  62.6420000 167.7010000  -6.6090000  63.2500000 166.9920000  -5.8720000
  61.2720000 167.0300000  -6.7130000  61.3400000 165.8980000  -7.0730000
  60.5870000 166.9830000  -5.7500000  60.6330000 167.4560000  -7.6360000
  63.3610000 167.5280000  -7.8310000  64.3710000 168.1300000  -7.9490000
  61.8000000 169.4390000  -4.9450000  62.3550000 169.2300000  -3.8530000
  60.5380000 169.8900000  -5.0630000  60.1690000 170.4340000  -6.0540000
  59.6060000 170.1020000  -3.9530000  60.1070000 169.3390000  -3.1940000
  59.5730000 171.5630000  -3.4770000  59.3990000 172.4090000  -4.2710000
  58.5700000 171.6310000  -2.9140000  60.8060000 172.0720000  -2.7220000
  61.7840000 171.9110000  -3.3840000  60.8230000 173.5900000  -2.6690000
  60.7970000 174.1840000  -3.7120000  59.9690000 174.1620000  -2.0490000
  61.8020000 174.1280000  -2.2260000  60.9130000 171.4670000  -1.3200000
  60.0170000 171.8600000  -0.6340000  61.8060000 171.9620000  -0.6990000
  61.1600000 170.3040000  -1.3260000  58.2270000 169.6490000  -4.3950000
  57.7480000 170.0680000  -5.4520000  57.6220000 168.7440000  -3.6240000
  58.3190000 168.2570000  -2.8170000  56.2940000 168.2310000  -3.9230000
  56.2020000 168.2290000  -5.1110000  56.1330000 166.7850000  -3.4410000
  56.1500000 166.9520000  -2.2740000  55.0900000 166.4000000  -3.8620000
  57.1760000 165.8420000  -3.9640000  57.9120000 165.0400000  -3.1100000
  58.1370000 164.7550000  -1.9870000  58.7330000 164.3460000  -3.8810000
  59.5690000 163.5260000  -3.7370000  58.5900000 164.6750000  -5.1620000
  57.5930000 165.6210000  -5.2310000  57.5060000 165.9870000  -6.3570000
  55.2440000 169.1270000  -3.2980000  55.4710000 169.7000000  -2.2290000
  54.0890000 169.2550000  -3.9680000  53.9410000 168.8320000  -5.0680000
  52.9800000 170.0690000  -3.4750000  53.4250000 171.1770000  -3.4530000
  51.8120000 170.0780000  -4.4790000  51.2400000 169.1090000  -4.8610000
  50.9670000 170.8780000  -4.1860000  52.1150000 170.7020000  -5.8340000
  53.3200000 170.8690000  -6.1610000  51.1480000 170.9870000  -6.5890000
  52.5020000 169.5390000  -2.1340000  52.7320000 168.3720000  -1.8120000
  51.8740000 170.4050000  -1.3410000  51.8160000 171.5430000  -1.6800000
  51.3500000 170.0430000  -0.0310000  52.3410000 169.6590000   0.4940000
  50.9690000 171.3020000   0.7590000  50.3880000 172.1170000   0.1050000
  50.0770000 171.0800000   1.4740000  52.1330000 172.2300000   1.0880000
  53.2280000 171.7180000   1.4360000  51.9240000 173.4650000   1.0930000
  50.1650000 169.0940000  -0.1680000  49.4550000 169.1230000  -1.1780000
  50.0080000 168.2040000   0.8260000  50.5320000 168.3850000   1.8710000
  48.9660000 167.1820000   0.9340000  49.0180000 166.5040000   1.9070000
  47.5780000 167.8100000   1.1570000  46.6780000 167.0660000   1.2930000
  47.1760000 168.5340000   0.2900000  47.5050000 168.6550000   2.4190000
  47.8870000 168.1450000   3.5020000  47.0900000 169.8330000   2.3240000
  48.9860000 166.2030000  -0.2320000  48.1970000 165.2570000  -0.2450000
  49.9270000 166.3890000  -1.1800000  50.7800000 167.1970000  -1.1010000
  50.0730000 165.5110000  -2.3350000  48.9720000 165.4510000  -2.7970000
  50.9980000 166.1110000  -3.3890000  50.5370000 167.1550000  -3.7320000
  50.8910000 165.5060000  -4.4180000  52.3690000 165.9860000  -3.0530000
  52.6070000 166.1210000  -1.9130000  50.5850000 164.1610000  -1.9190000
  51.3650000 164.0400000  -0.9750000  50.1240000 163.1490000  -2.6170000
  49.3510000 163.1960000  -3.5240000  50.5330000 161.7900000  -2.3780000
  50.4910000 161.5020000  -1.2290000  49.3640000 160.8380000  -2.6010000
  48.3790000 160.7950000  -1.9320000  48.9260000 160.5890000  -3.6910000
  49.7840000 159.0880000  -2.3950000  50.3340000 158.0570000  -2.4260000
  51.7070000 161.4860000  -3.3080000  51.6940000 161.8830000  -4.4790000
  52.7400000 160.8230000  -2.7660000  53.0850000 160.9970000  -1.6560000
  53.9400000 160.4580000  -3.5120000  53.5260000 160.2430000  -4.6130000
  55.0800000 161.4690000  -3.2530000  55.4410000 161.5570000  -2.1400000
  55.9750000 161.1490000  -3.9710000  54.8080000 162.9240000  -3.6610000
  53.7620000 163.2740000  -3.2140000  55.8730000 163.4590000  -3.5610000
  54.7430000 163.2200000  -5.1370000  54.9100000 162.3570000  -6.0070000
  54.5130000 164.4780000  -5.4480000  53.4580000 165.0140000  -5.5790000
  54.9380000 164.6780000  -6.5510000  54.4070000 159.0540000  -3.1350000
  54.1420000 158.5940000  -2.0290000  55.0960000 158.3800000  -4.0600000
  55.4400000 158.8300000  -5.1060000  55.6670000 157.0520000  -3.8350000
  55.2640000 156.5680000  -2.8390000  55.0510000 155.9280000  -4.7130000
  53.8600000 155.8250000  -4.6680000  55.1260000 156.2550000  -6.2000000
  54.5170000 155.4410000  -6.8440000  54.6340000 157.2220000  -6.7050000
  56.1640000 156.2350000  -6.7940000  55.6750000 154.5710000  -4.4090000
  56.7380000 154.5020000  -3.8860000  54.8820000 153.8380000  -3.8910000
  55.8800000 153.9370000  -5.4090000  57.1960000 157.1940000  -3.9150000
  57.7540000 157.5030000  -4.9740000  57.8520000 157.0890000  -2.7590000
  57.3980000 157.0220000  -1.6730000  59.2830000 157.3460000  -2.6660000
  59.6020000 157.4630000  -3.8080000  59.5330000 158.6230000  -1.7860000
  59.1950000 158.2570000  -0.7040000  60.9550000 159.1150000  -1.9230000
  61.1580000 159.4570000  -3.0510000  61.3290000 160.0980000  -1.3560000
  61.4480000 158.1780000  -1.3820000  58.5550000 159.7610000  -2.1340000
  57.4170000 159.4200000  -2.2560000  58.8120000 160.1880000  -3.2210000
  58.5440000 160.9120000  -1.2160000  57.5390000 161.4550000  -0.8920000
  59.0050000 161.8320000  -1.8210000  59.0920000 160.6000000  -0.2050000
  60.0380000 156.1220000  -2.1350000  59.5830000 155.4930000  -1.1760000
  61.2120000 155.7840000  -2.7030000  61.9100000 156.3940000  -3.8540000
  62.0600000 157.5270000  -4.1660000  61.3460000 156.0680000  -4.8610000
  63.2640000 155.7550000  -3.8130000  64.0900000 156.3560000  -3.2190000
  63.5990000 155.6930000  -4.9580000  63.0420000 154.4160000  -3.2320000
  63.9140000 153.9080000  -2.6080000  63.0790000 153.7000000  -4.1830000
  61.9620000 154.6340000  -2.1770000  61.2240000 153.7240000  -2.3690000
  62.5610000 154.8830000  -0.7910000  62.8040000 156.0270000  -0.4060000
  62.7760000 153.7990000  -0.0420000  62.8390000 152.7320000  -0.5420000
  63.3420000 153.8230000   1.3030000  63.6010000 154.9440000   1.5910000
  62.3200000 153.2910000   2.3450000  61.8820000 152.2630000   1.9520000
  62.9750000 152.9840000   3.6900000  62.9460000 153.7310000   4.6260000
  62.5270000 151.9450000   4.0880000  64.1230000 152.6750000   3.7960000
  61.1640000 154.2640000   2.5280000  60.2540000 153.6370000   2.9810000
  61.3430000 155.2060000   3.2310000  60.7220000 154.6330000   1.4860000
  64.6290000 153.0080000   1.2770000  64.6650000 151.9300000   0.6710000
  65.6880000 153.5360000   1.9090000  65.5310000 154.4840000   2.6080000
  66.9560000 152.8320000   1.9800000  66.9410000 152.3090000   0.9260000
  68.1570000 153.7810000   2.0590000  69.0530000 153.2150000   2.6060000
  67.6930000 154.6040000   2.7730000  68.5620000 154.4040000   0.7190000
  67.5710000 154.8750000   0.2580000  69.5210000 155.5090000   0.9150000
  69.5200000 156.2610000  -0.0130000  69.1120000 156.1960000   1.7980000
  70.6450000 155.2630000   1.2040000  69.2130000 153.3830000  -0.1950000
  70.1570000 152.8970000   0.3510000  69.5770000 153.8340000  -1.2280000
  68.5490000 152.4690000  -0.5730000  66.9280000 151.7840000   3.0910000
  66.5980000 152.0930000   4.2350000  67.1930000 150.5130000   2.7390000
  67.5240000 149.9880000   1.4000000  68.5010000 150.6070000   1.0880000
  66.6230000 150.0230000   0.6480000  68.0440000 148.6190000   1.6840000
  67.9430000 147.7680000   0.8550000  69.1910000 148.6000000   1.9340000
  67.4070000 148.1580000   2.9290000  67.7540000 147.0130000   2.8070000
  66.5180000 147.6200000   3.5400000  67.0610000 149.4250000   3.7250000
  65.9080000 149.4730000   4.0460000  67.9090000 149.4910000   4.9790000
  67.5360000 148.8600000   5.9600000  69.0330000 150.2020000   4.9660000
  69.5110000 150.9540000   4.1840000  69.8860000 150.1940000   6.1500000
  69.5940000 149.4400000   7.0280000  71.2860000 149.7230000   5.7830000
  72.0640000 149.9980000   4.9360000  71.9470000 150.0790000   6.6980000
  71.3260000 148.2700000   5.4780000  70.9170000 147.7840000   4.2540000
  70.1490000 148.3390000   3.5780000  71.0470000 146.4710000   4.3300000
  71.0420000 145.4540000   3.7270000  71.5130000 146.0950000   5.5230000
  71.6850000 147.2350000   6.2660000  72.2010000 147.0360000   7.3150000
  69.9350000 151.5000000   6.9250000  70.7040000 151.5930000   7.8740000
  69.0970000 152.4870000   6.5630000  68.1540000 152.3310000   5.8740000
  69.0130000 153.7510000   7.2840000  70.1580000 153.9390000   7.5560000
  68.5130000 154.9460000   6.4280000  67.3700000 154.7610000   6.1290000
  68.5950000 156.2410000   7.2200000  68.1060000 157.1010000   6.5530000
  67.8370000 156.1770000   8.1390000  69.6660000 156.5700000   7.6010000
  69.2840000 155.0890000   5.1250000  70.0200000 156.0200000   5.1810000
  68.4390000 155.5430000   4.4220000  70.0510000 154.2490000   4.7790000
  68.0310000 153.4440000   8.3760000  66.9490000 152.9150000   8.1000000
  68.4060000 153.7230000   9.6100000  69.5540000 153.5220000   9.8470000
  67.5160000 153.5060000  10.7400000  66.3720000 153.4070000  10.4370000
  67.9790000 152.3280000  11.6110000  69.1090000 152.4890000  11.9820000
  67.4660000 152.3030000  12.6790000  67.9550000 150.9780000  10.9430000
  67.6180000 150.8980000   9.8110000  69.1150000 150.7000000  10.8130000
  68.0100000 149.6480000  12.1800000  67.8420000 148.1920000  11.0920000
  68.1550000 147.8840000   9.9790000  68.9020000 147.9400000  11.5940000
  67.2380000 147.2630000  11.5370000  67.3250000 154.8060000  11.5270000
  66.3990000 154.8880000  12.3310000  68.1640000 155.8380000  11.2510000
  69.2510000 155.4810000  10.9620000  68.0410000 157.1740000  11.8560000
  67.6960000 156.8990000  12.9660000  69.3170000 158.0550000  11.7970000
  69.1700000 159.0430000  12.4460000  70.4860000 157.4030000  12.5150000
  71.3260000 158.1140000  12.9710000  70.1010000 156.9530000  13.5600000
  71.0530000 156.4270000  12.1260000  69.6810000 158.4500000  10.3680000
  69.8480000 157.5430000   9.6240000  70.4880000 159.3250000  10.4030000
  68.7870000 159.0800000   9.8950000  66.8510000 157.9420000  11.2780000
  66.3080000 157.6040000  10.2080000  66.4880000 159.0010000  12.0060000
  66.9570000 159.1610000  13.0830000  65.4320000 159.9570000  11.7210000
  64.6600000 159.3860000  11.0190000  64.6780000 160.2760000  13.0060000
  65.4420000 160.8700000  13.6920000  64.3950000 159.1880000  13.3980000
  63.4500000 161.1080000  12.8000000  63.6280000 162.2490000  12.5010000
  62.4370000 160.8100000  12.2750000  62.8030000 161.6930000  14.3780000
  62.8290000 160.0880000  15.3750000  62.5270000 160.4290000  16.4650000
  62.3670000 159.0670000  14.9720000  63.9510000 159.7680000  15.5870000
  66.0800000 161.2300000  11.2110000  67.0160000 161.7610000  11.8280000
  65.5660000 161.7260000  10.1030000  64.4230000 161.4920000   9.8810000
  66.0700000 162.9360000   9.5010000  67.0960000 163.1090000  10.0710000
  66.3380000 162.6730000   8.0100000  66.9690000 161.9520000   7.2870000
  65.9120000 161.5840000   8.2380000  67.0280000 163.7560000   7.2100000
  66.2990000 164.6830000   7.3750000  68.4430000 163.9590000   7.6490000
  69.0720000 164.7620000   7.0420000  68.5910000 164.3670000   8.7540000
  68.9430000 162.8900000   7.8320000  67.0630000 163.3790000   5.8050000
  67.9200000 163.9330000   5.1840000  66.0140000 163.7570000   5.3700000
  67.1000000 162.3170000   5.2680000  65.0560000 164.0550000   9.7100000
  63.8510000 163.8290000   9.5740000  65.5510000 165.2450000  10.0810000
  66.7100000 165.4000000  10.1460000  64.7590000 166.4620000  10.2680000
  63.6630000 166.0740000  10.4640000  65.2700000 167.2570000  11.5260000
  66.3940000 167.5500000  11.2980000  64.6230000 168.6190000  11.6980000
  63.5290000 168.5050000  12.1570000  65.2550000 169.2960000  12.4470000
  64.7000000 169.2920000  10.7220000  65.1880000 166.4430000  12.8500000
  65.9450000 165.5460000  12.8980000  65.4540000 167.2000000  13.7170000
  63.8460000 165.6540000  13.1830000  62.8750000 166.1000000  12.6700000
  63.8460000 164.4670000  13.2720000  63.6100000 165.9360000  14.3170000
  64.9190000 167.3000000   8.9680000  66.0290000 167.3120000   8.4240000
  63.8840000 168.0370000   8.4610000  62.4860000 168.1460000   8.9160000
  61.9680000 167.1410000   9.2740000  62.4810000 168.8660000   9.8570000
  61.7960000 168.7500000   7.7340000  60.8670000 168.9960000   8.4230000
  61.2700000 168.7140000   6.6760000  62.7990000 169.6650000   7.1500000
  62.7710000 170.1220000   6.0450000  62.8070000 170.7380000   7.6740000
  64.1150000 168.9030000   7.2900000  64.2630000 168.2270000   6.3330000
  65.2800000 169.8600000   7.5360000  65.4450000 170.3640000   8.6530000
  66.1350000 169.9950000   6.5230000  65.5680000 170.5400000   5.6460000
  67.3140000 170.8490000   6.5610000  66.9830000 171.7270000   7.2810000
  67.7390000 171.4950000   5.6600000  68.5850000 170.1700000   7.0160000
  69.6790000 170.6470000   6.6940000  68.4480000 169.0570000   7.7730000
  67.8810000 169.5230000   8.6860000  69.5540000 168.2480000   8.3170000
  70.2200000 169.0880000   8.8440000  69.0270000 167.3050000   9.4220000
  67.9580000 167.0730000   9.0730000  69.0290000 168.0660000  10.3120000
  70.0420000 166.3350000  10.0370000  70.7470000 165.7040000   9.3490000
  70.7940000 166.9500000  10.7410000  69.4390000 165.3380000  11.0090000
  68.2300000 165.3040000  11.2640000  70.2890000 164.5060000  11.5900000
  70.0930000 163.3560000  11.3570000  70.7940000 164.8320000  12.6110000
  70.2460000 167.4680000   7.2010000  69.5720000 166.8820000   6.3560000
  71.5930000 167.4870000   7.2040000  72.0670000 168.2810000   7.9480000
  72.4860000 166.7880000   6.2740000  72.0360000 167.0900000   5.2190000
  73.8250000 167.5300000   6.2430000  74.2770000 167.6480000   7.3390000
  74.9060000 166.7860000   5.4980000  75.1760000 165.7410000   6.0040000
  75.9120000 167.4080000   5.6850000  74.8080000 166.6020000   4.3270000
  73.6190000 168.8090000   5.6500000  74.2440000 169.7020000   6.1170000
  72.6270000 165.3180000   6.7020000  72.8730000 165.0380000   7.8740000
  72.4670000 164.3900000   5.7650000  73.1050000 164.6510000   4.8170000
  72.5650000 162.9600000   6.0270000  72.6590000 162.8110000   7.2010000
  71.2200000 162.2630000   5.7240000  70.5700000 162.7070000   6.6100000
  70.8420000 162.7770000   4.7170000  71.2010000 160.7410000   5.8200000
  72.1590000 160.3270000   5.2500000  71.1050000 160.2720000   7.2550000
  72.0000000 160.4930000   7.9970000  70.1670000 160.5840000   7.9280000
  70.8860000 159.1110000   7.0970000  70.0420000 160.1900000   5.0870000
  70.1660000 159.0370000   4.7990000  69.7980000 160.7630000   4.0690000
  69.0030000 160.2220000   5.6690000  73.6860000 162.3600000   5.1690000
  73.5320000 162.2310000   3.9440000  74.8210000 161.9710000   5.7790000
  75.1930000 162.0280000   7.2070000  74.6710000 161.1490000   7.8150000
  75.0350000 163.1810000   7.4580000  76.6950000 161.7600000   7.1840000
  76.7310000 162.3960000   8.1860000  77.6060000 161.0860000   7.5260000
  77.1510000 161.7080000   5.7560000  77.4340000 162.8430000   5.5270000
  77.9910000 161.0370000   5.2550000  75.8890000 161.3570000   4.9770000
  75.9080000 161.9140000   3.9310000  75.6530000 159.8520000   4.8600000
  75.2230000 159.2200000   5.8310000  75.8550000 159.2900000   3.6610000
  76.8700000 159.6610000   3.1810000  75.6670000 157.8590000   3.4690000
  75.6590000 157.3420000   4.5350000  74.4000000 157.5690000   2.6640000
  74.7500000 157.9760000   1.6120000  74.3520000 156.3890000   2.5300000
  73.0670000 157.9640000   3.2640000  73.1200000 159.1520000   3.3240000
  71.9660000 157.6020000   2.3450000  70.9270000 157.2570000   2.8070000
  72.2600000 156.8910000   1.4350000  71.6140000 158.5720000   1.7550000
  72.8190000 157.2410000   4.5330000  71.9200000 156.4620000   4.5270000
  73.6440000 156.4580000   4.8970000  72.7510000 158.0030000   5.4400000
  76.8560000 157.2110000   2.7960000  77.5270000 157.8290000   1.9690000
  77.1150000 155.9600000   3.1630000  76.4840000 155.2520000   3.8750000
  78.1590000 155.1470000   2.5590000  78.6000000 155.5730000   1.5470000
  79.3870000 155.0280000   3.4830000  79.3010000 154.1360000   4.2610000
  79.6090000 156.0380000   4.0680000  80.6770000 154.6420000   2.7490000
  80.6750000 153.4970000   2.4250000  80.8980000 155.1650000   1.7060000
  81.9070000 154.9230000   3.5720000  82.0620000 155.9910000   4.1820000
  82.8340000 153.9810000   3.5790000  83.9880000 154.2300000   3.7110000
  82.8740000 152.8460000   3.2220000  77.4870000 153.8070000   2.2630000
  77.3010000 152.9850000   3.1610000  77.0200000 153.6450000   1.0220000
  76.9540000 154.5990000   0.3320000  76.2970000 152.4460000   0.5870000
  75.8720000 151.9230000   1.5690000  75.0710000 152.8460000  -0.2480000
  75.3290000 151.8090000  -0.7980000  74.0440000 152.5300000  -0.7720000
  74.1980000 154.0000000   0.2570000  74.8140000 154.9310000   0.6510000
  73.3790000 154.5700000  -0.8660000  73.3620000 153.9610000  -1.8870000
  73.7060000 155.7010000  -1.0520000  72.2160000 154.6680000  -0.6300000
  73.2870000 153.5580000   1.3700000  73.2210000 152.3690000   1.4940000
  72.1600000 153.8070000   1.6540000  73.7470000 153.8350000   2.4460000
  77.2090000 151.4740000  -0.2050000  77.9870000 151.9040000  -1.0570000
  77.0910000 150.1660000   0.0830000  76.7430000 149.8800000   1.1830000
  77.8900000 149.1000000  -0.5340000  78.2950000 149.2110000  -1.6460000
  79.1360000 148.7850000   0.3020000  79.9100000 149.6810000   0.1730000
  79.7570000 147.7900000   0.1540000  78.8690000 148.6700000   1.7810000
  78.8790000 149.7970000   2.5950000  79.6690000 150.6360000   2.3140000
  78.5990000 149.6940000   3.9630000  78.8380000 150.7280000   4.4780000
  78.3270000 148.4570000   4.5250000  78.0300000 148.0940000   5.6140000
  78.3220000 147.3300000   3.7310000  78.4380000 146.2480000   4.2140000
  78.5860000 147.4400000   2.3590000  78.7930000 146.3300000   1.9770000
  77.0920000 147.8170000  -0.8460000  77.6340000 146.9260000  -1.4940000
  75.8060000 147.7360000  -0.4360000  75.3950000 148.3870000   0.4620000
  74.9680000 146.5820000  -0.7560000  75.6820000 145.6500000  -0.5560000
  73.8290000 146.4190000   0.2450000  73.3030000 147.4640000   0.2030000
  73.3060000 145.3620000   0.1180000  74.2810000 146.2070000   1.6600000
  74.9580000 145.0600000   2.0370000  75.3920000 144.0500000   1.5910000
  75.1880000 145.1890000   3.3330000  75.6580000 144.4260000   4.1110000
  74.7020000 146.3330000   3.8040000  74.1090000 146.9870000   2.7500000
  74.1570000 148.0600000   3.2580000  74.4370000 146.7720000  -2.1770000
  73.9020000 147.8500000  -2.4870000  74.6160000 145.7610000  -3.0700000
  75.2690000 144.4560000  -2.8690000  75.1990000 143.7360000  -1.9170000
  76.4530000 144.5000000  -3.0250000  74.6350000 143.6240000  -3.8850000
  73.6970000 142.9330000  -3.5910000  75.3590000 142.7350000  -4.2270000
  74.3180000 144.5120000  -5.0390000  73.3850000 144.0870000  -5.6530000
  75.1370000 144.3840000  -5.9060000  74.2290000 145.9260000  -4.4790000
  75.0930000 146.4800000  -5.0820000  72.8700000 146.5350000  -4.7560000
  72.7650000 147.3220000  -5.6920000  71.8490000 146.1770000  -3.9670000
  72.2880000 145.4140000  -3.1970000  70.4820000 146.6620000  -4.1510000
  70.2740000 146.4540000  -5.3090000  69.4470000 145.7640000  -3.4290000
  68.4580000 145.9140000  -4.0790000  69.6970000 144.6190000  -3.6690000
  69.4230000 145.7990000  -1.8790000  68.7940000 144.8620000  -1.5020000
  68.9440000 146.8360000  -1.6700000  70.6560000 145.2920000  -1.1380000
  71.5440000 144.6040000  -1.6830000  70.7040000 145.6080000   0.1550000
  70.1920000 146.1840000   1.0500000  70.6640000 144.5350000   0.6930000
  70.3340000 148.1350000  -3.7830000  69.6450000 148.8590000  -4.4970000
  71.0020000 148.5810000  -2.6940000  71.5920000 147.7520000  -2.1010000
  70.9940000 149.9820000  -2.2370000  69.8400000 150.2660000  -2.2440000
  71.6570000 150.1460000  -0.8570000  71.3810000 151.2440000  -0.5100000
  72.8480000 150.0830000  -0.7950000  71.2360000 149.1840000   0.2350000
  71.3290000 148.0150000   0.3040000  70.0710000 149.3110000   0.0420000
  71.8610000 149.5780000   1.5580000  73.1130000 149.5980000   1.6460000
  71.0960000 149.9610000   2.4730000  71.7810000 150.8180000  -3.2490000
  71.3550000 151.9200000  -3.6010000  72.9290000 150.2810000  -3.7160000
  73.5450000 149.7590000  -2.8610000  73.7540000 150.9330000  -4.7220000
  73.9990000 151.9860000  -4.2360000  75.1040000 150.2030000  -4.9380000
  74.8720000 149.1010000  -5.3250000  75.8510000 150.7700000  -6.1390000
  76.7050000 149.9870000  -6.4310000  75.1790000 150.7330000  -7.1230000
  76.3480000 151.8500000  -6.1690000  75.9680000 150.2850000  -3.6760000
  75.6030000 150.3100000  -2.5470000  76.7920000 151.1410000  -3.7320000
  76.5130000 149.2200000  -3.7400000  72.9440000 151.1500000  -6.0230000
  72.8390000 152.2910000  -6.4680000  72.3060000 150.0930000  -6.5720000
  72.3060000 148.9990000  -6.1510000  71.5110000 150.2390000  -7.7930000
  72.3770000 150.5490000  -8.5450000  71.0060000 148.9010000  -8.3050000
  70.0060000 148.3740000  -7.9320000  71.7330000 147.9600000  -8.5050000
  70.6300000 149.0720000  -9.6640000  71.4840000 149.4580000 -10.3690000
  70.3550000 151.1910000  -7.6260000  70.0790000 151.9800000  -8.5260000
  69.7140000 151.1510000  -6.4620000  70.1990000 150.5310000  -5.5890000
  68.6050000 152.0120000  -6.1150000  67.7270000 151.6660000  -6.8470000
  68.1510000 151.6960000  -4.6820000  68.7530000 152.0880000  -3.7560000
  67.8720000 150.5380000  -4.7210000  66.8160000 152.2420000  -4.3300000
  66.0760000 152.4020000  -5.2350000  66.4130000 151.7030000  -3.3540000
  66.8750000 154.0190000  -4.0310000  66.4140000 154.0810000  -2.2650000
  67.5780000 154.2840000  -2.1710000  65.9580000 153.1650000  -1.6730000
  65.9400000 155.1650000  -2.2090000  69.0000000 153.4820000  -6.2940000
  68.3970000 154.1560000  -7.1240000  70.0310000 153.9620000  -5.5580000
  70.4660000 153.2860000  -4.7000000  70.4780000 155.3640000  -5.6190000
  69.4550000 155.9310000  -5.4720000  71.3910000 155.8030000  -4.4780000
  71.6090000 156.9580000  -4.6950000  70.6690000 155.7230000  -3.1370000
  69.5390000 156.0710000  -3.0000000  71.1910000 156.4700000  -2.3640000
  70.7460000 154.5960000  -2.7770000  72.6650000 154.9880000  -4.4660000
  72.7760000 153.8210000  -4.6070000  73.2230000 155.4860000  -3.5500000
  73.3360000 155.4710000  -5.3260000  71.0810000 155.7330000  -6.9510000
  70.9540000 156.8760000  -7.3890000  71.7430000 154.7710000  -7.5960000
  71.9750000 153.7410000  -7.0850000  72.3310000 154.9720000  -8.9050000
  73.0010000 155.9450000  -9.0220000  73.0960000 153.7030000  -9.3130000
  73.9980000 153.6240000  -8.5430000  72.3990000 152.7560000  -9.4860000
  73.7240000 153.7430000 -10.6940000  72.9740000 153.8360000 -11.6230000
  74.4540000 154.6540000 -10.9510000  74.3080000 152.4030000 -11.0630000
  73.5020000 151.5580000 -11.2910000  74.7690000 152.4570000 -12.1720000
  75.5650000 152.1650000 -10.3600000  76.0840000 153.1790000 -10.0670000
  75.9830000 150.9740000  -9.9490000  75.2310000 149.8950000 -10.1380000
  75.3410000 149.1500000 -11.0610000  74.4510000 149.3420000  -9.4530000
  77.1480000 150.8550000  -9.3230000  77.9420000 150.9450000 -10.2140000
  77.5680000 151.5180000  -8.4410000  71.1810000 155.3570000  -9.8870000
  71.3320000 156.3000000 -10.6630000  70.0150000 154.6980000  -9.7630000
  69.9260000 153.5890000  -9.3900000  68.8390000 154.9700000 -10.5950000
  69.0410000 155.0100000 -11.7720000  67.8660000 153.7750000 -10.5780000
  66.9190000 153.9090000 -11.3050000  67.2590000 153.5280000  -9.5850000
  68.3450000 152.5360000 -11.3240000  68.8670000 152.5960000 -12.4530000
  68.1000000 151.3690000 -10.7400000  68.3710000 150.6810000  -9.8360000
  67.3880000 150.6280000 -11.3480000  68.1250000 156.2500000 -10.1610000
  67.4810000 156.9130000 -10.9730000  68.2580000 156.5880000  -8.8800000
  68.8160000 155.7580000  -8.2600000  67.6580000 157.7490000  -8.2240000
  66.5560000 157.5870000  -8.6570000  67.9100000 157.5800000  -6.7160000
  68.9160000 158.1370000  -6.3850000  67.4630000 156.4690000  -6.6050000
  67.0240000 158.2630000  -5.7150000  66.9910000 159.4430000  -5.8590000
  65.5720000 157.9350000  -5.9460000  64.9700000 158.4870000  -6.8230000
  65.3100000 156.8140000  -6.2850000  64.7520000 158.1200000  -5.1110000
  67.4070000 157.8260000  -4.3340000  68.4510000 158.2150000  -3.9390000
  67.3180000 156.6540000  -4.1350000  66.6510000 158.4620000  -3.6820000
  68.2650000 159.0630000  -8.7300000  67.5630000 160.0620000  -8.8710000
  69.5720000 159.0410000  -9.0070000  70.2460000 158.2400000  -8.4760000
  70.3700000 160.1540000  -9.5060000  70.2200000 161.2770000  -9.1570000
  71.8770000 159.7280000  -9.4170000  72.2510000 158.7070000  -8.9340000
  72.5570000 159.4230000 -10.7610000  73.4130000 160.2000000 -11.0940000
  73.2400000 158.4570000 -10.9320000  71.8830000 159.5120000 -11.7370000
  72.6960000 160.7170000  -8.5860000  73.8510000 160.4120000  -8.6200000
  72.6040000 161.7090000  -9.2430000  72.2200000 160.8300000  -7.1750000
  73.1260000 160.5300000  -6.4690000  71.9570000 161.9460000  -6.8600000
  71.4050000 160.0160000  -6.8790000  69.8820000 160.5800000 -10.8970000
  69.8330000 161.7760000 -11.2000000  69.4320000 159.5840000 -11.6940000
  69.6500000 158.4440000 -11.4570000  68.8990000 159.7240000 -13.0500000
  69.4620000 160.5360000 -13.7230000  68.8090000 158.3470000 -13.7270000
  67.8810000 158.3580000 -14.4850000  68.6260000 157.3070000 -13.1920000
  69.9850000 158.0390000 -14.6460000  70.0990000 158.8130000 -15.5580000
  69.8700000 157.0320000 -15.2510000  71.3370000 158.1260000 -13.9680000
  72.0370000 159.1430000 -14.0590000  71.7410000 157.0590000 -13.2910000
  71.5880000 156.0100000 -12.8140000  72.5850000 156.6510000 -14.0420000
  67.5590000 160.4150000 -13.0820000  67.1040000 160.8050000 -14.1560000
  66.9250000 160.5760000 -11.9180000  67.4130000 160.7260000 -10.8580000
  65.6290000 161.2270000 -11.8330000  65.6680000 162.0640000 -12.6890000
  64.4630000 160.2080000 -11.8580000  63.9760000 161.1450000 -12.4500000
  63.5110000 159.7540000 -12.4260000  64.6870000 158.8580000 -11.1540000
  65.5390000 158.2140000 -11.6550000  64.6710000 158.9890000  -9.9770000
  63.5040000 157.8750000 -11.3620000  63.5060000 156.8950000 -10.6690000
  62.4860000 158.3980000 -10.9940000  63.3640000 157.3250000 -12.7750000
  63.4550000 158.0120000 -13.7460000  64.1870000 156.4850000 -13.0360000
  62.0970000 156.5660000 -12.9560000  61.3900000 156.9920000 -13.8270000
  61.2480000 156.3380000 -12.1370000  62.3310000 155.4500000 -13.3370000
  65.5360000 162.1960000 -10.6570000  66.3760000 163.0950000 -10.5460000
  64.5040000 162.0020000  -9.8030000  63.4640000 161.7790000 -10.3100000
  64.0780000 162.7570000  -8.6200000  63.6110000 163.7230000  -9.1490000
  63.0190000 161.9370000  -7.8580000  63.7160000 160.9670000  -7.8110000
  62.1400000 161.1840000  -8.0460000  61.9590000 162.7490000  -7.1340000
  61.6770000 163.8870000  -7.5720000  61.3520000 162.2140000  -6.1790000
  65.1630000 163.1730000  -7.6380000  65.0520000 164.2630000  -7.0630000
  66.1630000 162.2750000  -7.3860000  65.9660000 161.1630000  -7.7390000
  67.2630000 162.4320000  -6.4230000  67.9180000 161.4430000  -6.4410000
  68.1530000 163.6520000  -6.7080000  68.6560000 163.9130000  -5.6670000
  67.4840000 164.5650000  -7.0850000  69.1440000 163.4170000  -7.8280000
  68.6380000 163.5690000  -8.8980000  69.6270000 162.3970000  -7.4700000
  70.2470000 164.4610000  -7.8330000  70.8610000 164.5700000  -6.8270000
  71.0640000 164.1280000  -8.6400000  69.8530000 165.7080000  -8.4950000
  69.7890000 165.7060000  -9.6850000  69.4380000 166.8080000  -7.8710000
  69.3760000 166.8470000  -6.5440000  69.8040000 167.7480000  -5.9070000
  68.4810000 166.3170000  -5.9860000  69.1120000 167.8890000  -8.5690000
  69.6220000 168.9470000  -8.5060000  68.3890000 167.8400000  -9.5170000
  66.7770000 162.4160000  -4.9820000  67.5890000 162.5420000  -4.0600000
  65.4650000 162.2150000  -4.7760000  64.5110000 162.0510000  -5.4470000
  64.8930000 162.1570000  -3.4310000  65.8430000 162.1910000  -2.7280000
  63.7280000 163.1710000  -3.2160000  63.3520000 163.1800000  -2.0840000
  64.0050000 164.5610000  -3.7870000  63.9660000 164.7690000  -4.9590000
  64.8990000 165.0520000  -3.1930000  63.1630000 165.3100000  -3.3760000
  62.5080000 162.6640000  -3.7480000  61.7060000 163.4710000  -4.0500000
  64.4990000 160.7230000  -3.0280000  64.0540000 159.9360000  -3.8480000
  64.6570000 160.4130000  -1.7580000  65.4940000 160.7420000  -0.9890000
  64.2870000 159.1480000  -1.1310000  63.4880000 158.6240000  -1.8310000
  65.4890000 158.1930000  -1.0040000  65.6800000 157.7430000  -2.0790000
  65.3280000 157.1640000  -0.4220000  66.6670000 158.6580000  -0.1750000
  67.6890000 159.4080000  -0.7480000  67.7400000 159.7490000  -1.8790000
  68.7960000 159.8130000   0.0130000  69.7060000 160.4630000  -0.3520000
  68.9000000 159.4360000   1.3470000  69.7860000 159.9810000   1.9070000
  67.8980000 158.6840000   1.9260000  68.0610000 158.2250000   3.0050000
  66.7910000 158.2800000   1.1590000  66.1270000 157.5170000   1.7760000
  63.6110000 159.4640000   0.2320000  63.6050000 160.6180000   0.6760000
  62.9820000 158.4750000   0.8490000  63.5660000 157.4560000   0.9800000
  62.2780000 158.7010000   2.0960000  62.1860000 159.8740000   2.2330000
  60.8900000 158.0990000   2.0170000  60.5330000 157.6500000   3.0570000
  60.5860000 157.2150000   1.2770000  60.1080000 158.9370000   1.7010000
  63.0400000 158.1290000   3.2730000  63.6450000 157.0610000   3.1660000
  63.0580000 158.8720000   4.3750000  62.1440000 159.5800000   4.5470000
  63.7080000 158.4720000   5.6150000  64.1500000 157.3770000   5.4600000
  64.8210000 159.4560000   6.0650000  64.3020000 160.5120000   6.2520000
  65.4810000 158.9930000   7.3550000  66.6570000 158.9960000   7.5140000
  64.9470000 159.5120000   8.2870000  65.2460000 157.8510000   7.6190000
  65.8620000 159.6430000   4.9760000  66.2730000 158.5570000   4.6890000
  66.8580000 160.2120000   5.2440000  65.3660000 160.0600000   3.9800000
  62.5720000 158.3740000   6.6260000  61.8750000 159.3680000   6.8610000
  62.3670000 157.1660000   7.1920000  63.1960000 156.3140000   7.2430000
  61.2880000 156.9020000   8.1430000  60.3720000 157.5740000   7.8180000
  60.6930000 155.4950000   7.9530000  61.6700000 154.8470000   8.2160000
  59.8520000 155.3430000   8.7770000  60.2280000 155.0780000   6.5510000
  61.1310000 155.2520000   5.7950000  59.9730000 153.5980000   6.4970000
  59.2000000 153.3070000   5.6340000  59.7230000 152.8800000   7.4210000
  60.9350000 152.9880000   6.1600000  59.0190000 155.8720000   6.0910000
  58.3850000 155.3260000   5.2330000  58.2430000 156.0650000   6.9700000
  59.4440000 156.7660000   5.4410000  61.6730000 157.1180000   9.6050000
  62.7810000 156.7680000  10.0500000  60.7300000 157.7090000  10.3450000
  60.1200000 158.5310000   9.7790000  60.8550000 157.9660000  11.7670000
  62.0150000 158.0500000  12.0170000  60.1520000 159.2690000  12.1380000
  58.9820000 159.1940000  12.3500000  60.5980000 159.6210000  13.1790000
  60.4470000 160.0890000  11.3320000  60.2110000 156.7650000  12.4590000
  58.9870000 156.7210000  12.6500000  61.0430000 155.7580000  12.7570000
  62.1560000 156.0260000  13.0750000  60.6070000 154.5150000  13.3640000
  59.7050000 154.1280000  12.7070000  61.6980000 153.4380000  13.2570000
  62.7330000 153.8220000  13.7110000  61.4400000 152.6240000  14.0830000
  61.9410000 152.9240000  11.8510000  61.0890000 151.9870000  11.2730000
  60.1800000 151.5750000  11.8980000  61.3210000 151.4920000   9.9900000
  60.4550000 151.1570000   9.2510000  62.4400000 151.8990000   9.2870000
  62.6730000 151.3970000   8.0300000  63.8130000 151.2120000   7.7780000
  63.3060000 152.8260000   9.8440000  64.0280000 153.3780000   9.0830000
  63.0610000 153.3190000  11.1250000  63.9000000 154.0590000  11.5170000
  60.1130000 154.6580000  14.8060000  60.8360000 155.1530000  15.6810000
  58.8500000 154.2240000  15.0220000  58.0050000 154.6700000  14.3270000
  58.1430000 154.1760000  16.3050000  58.3430000 154.9660000  17.1740000
  56.6230000 154.1600000  16.1040000  56.1520000 155.2120000  15.8050000
  56.0650000 154.0390000  17.1620000  56.1260000 153.1570000  15.2290000
  55.3010000 152.4730000  15.7150000  58.6340000 152.9360000  17.0640000
  58.8100000 152.9810000  18.2870000  58.9100000 151.8520000  16.3070000
  59.1160000 151.9610000  15.1520000  59.4580000 150.5770000  16.7740000
  59.9270000 150.6970000  17.8640000  58.3430000 149.5210000  16.9380000
  57.3440000 149.3620000  16.3300000  57.9090000 149.9160000  17.9890000
  58.7890000 148.1340000  17.3600000  59.9620000 147.7480000  17.2600000
  57.8330000 147.3270000  17.7930000  56.7000000 147.5410000  18.0880000
  58.1440000 146.5370000  18.6290000  60.4760000 150.1590000  15.7210000
  60.1010000 149.6420000  14.6610000  61.7630000 150.4190000  15.9990000
  61.9820000 151.0390000  16.9890000  62.8330000 150.1270000  15.0490000
  62.5680000 150.5330000  13.9650000  64.1840000 150.7990000  15.4110000
  64.0140000 151.9660000  15.6040000  64.7250000 150.3300000  16.7650000
  64.9040000 149.2050000  17.1320000  64.2590000 150.8520000  17.7380000
  65.8540000 150.7160000  16.9250000  65.2190000 150.6360000  14.2890000
  66.1330000 149.9430000  14.6300000  65.7350000 151.7050000  14.1540000
  64.8480000 150.2000000  13.2530000  62.9520000 148.6140000  14.7800000
  63.1680000 148.2380000  13.6240000  62.7320000 147.7620000  15.8140000
  62.7540000 148.1000000  16.9530000  62.7870000 146.2980000  15.6760000
  63.8220000 146.0780000  15.1270000  62.7490000 145.6000000  17.0470000
  61.8040000 145.6660000  17.7790000  63.6930000 146.0840000  17.6090000
  62.9920000 144.0910000  16.9890000  62.1390000 143.4600000  16.4560000
  64.0390000 143.8550000  16.4990000  63.1580000 143.5160000  18.3810000
  62.5680000 143.9570000  19.3220000  64.2620000 143.7770000  18.7740000
  63.2460000 142.0550000  18.3640000  64.2980000 141.5550000  18.1230000
  62.2790000 141.2330000  18.7600000  61.1360000 141.7190000  19.2340000
  60.5130000 140.9220000  19.8680000  60.3940000 142.6490000  19.2630000
  62.4520000 139.9190000  18.7050000  61.7670000 139.0460000  18.2820000
  63.3230000 139.3890000  19.3150000  61.6910000 145.7750000  14.7530000
  61.9850000 145.0220000  13.8290000  60.4440000 146.2060000  14.9710000
  60.2910000 147.2210000  15.5330000  59.3380000 145.7600000  14.1310000
  59.4620000 144.7730000  13.4600000  58.0370000 145.5880000  14.9420000
  57.6110000 146.6000000  15.3940000  57.1210000 145.1920000  14.2930000
  58.0590000 144.3780000  15.8810000  57.1210000 144.0760000  16.5180000
  58.9300000 144.5590000  16.6560000  58.1630000 142.9980000  15.2390000
  57.1050000 142.4220000  14.8930000  59.2990000 142.4850000  15.0990000
  59.1700000 146.6450000  12.8820000  58.2270000 146.4480000  12.1070000
  60.1510000 147.5550000  12.6510000  61.0790000 147.7550000  13.3460000
  60.2510000 148.4710000  11.5070000  61.0880000 149.2980000  11.6520000
  60.7990000 147.7520000  10.2550000  59.9400000 147.0410000   9.8330000
  60.8740000 148.4960000   9.3250000  62.0820000 146.9530000  10.4880000
  62.5600000 146.5580000  11.5120000  61.7890000 145.8900000  10.0250000
  63.2450000 147.4530000   9.6570000  63.8760000 146.4830000   9.3810000
  62.9520000 147.8110000   8.5550000  64.0580000 148.4240000  10.3900000
  63.7810000 148.6340000  11.5170000  65.1590000 149.0000000   9.9120000
  65.5870000 148.7190000   8.6860000  65.6260000 149.4470000   7.7530000
  65.9150000 147.6460000   8.2840000  65.8370000 149.8680000  10.6550000
  66.0000000 149.2560000  11.5890000  65.2460000 150.8850000  10.8050000
  58.9250000 149.2190000  11.2240000  58.4680000 149.2950000  10.0760000
  58.3220000 149.7650000  12.3010000  58.9410000 150.1450000  13.2250000
  57.0600000 150.5080000  12.2770000  56.3810000 150.0920000  11.3880000
  56.2280000 150.2040000  13.5310000  55.2370000 150.8670000  13.3870000
  56.7250000 150.5070000  14.5590000  55.6380000 148.8050000  13.5640000
  56.3190000 147.8450000  13.3960000  54.7540000 148.6480000  12.7720000
  54.9130000 148.4500000  14.8480000  54.6390000 149.3670000  15.6610000
  54.6160000 147.2480000  15.0390000  57.3270000 151.9960000  12.2040000
  58.0470000 152.5230000  13.0430000  56.7390000 152.6750000  11.2180000
  55.9740000 152.1550000  10.4740000  56.9130000 154.1090000  11.0380000
  56.9330000 154.5470000  12.1430000  58.1260000 154.3770000  10.1680000
  58.0070000 153.5440000   9.3150000  59.2310000 154.1980000  10.5490000
  57.9100000 155.4690000   9.7490000  55.6800000 154.7160000  10.4080000
  55.2290000 154.2460000   9.3650000  55.1420000 155.7610000  11.0380000
  55.3550000 156.0520000  12.1700000  53.9530000 156.4750000  10.5640000
  53.2460000 155.7950000   9.8880000  52.9500000 156.6510000  11.7130000
  53.1970000 157.2710000  12.6990000  51.9160000 157.1700000  11.4030000
  52.5310000 155.3600000  12.3460000  51.2800000 154.8100000  12.1050000
  50.2680000 155.0680000  11.5420000  51.2490000 153.6800000  12.7970000
  50.3380000 152.9460000  13.0020000  52.3950000 153.4740000  13.4570000
  53.2230000 154.5360000  13.1720000  53.8650000 154.6800000  14.1530000
  54.3200000 157.8370000   9.9820000  53.4990000 158.4670000   9.3140000
  55.5570000 158.2940000  10.2550000  56.2040000 157.8880000  11.1600000
  56.0880000 159.5800000   9.8110000  55.3980000 159.9470000   8.9170000
  56.0900000 160.5780000  10.9880000  56.7420000 160.0090000  11.7910000
  56.3930000 161.7100000  11.1650000  54.6990000 160.9280000  11.4610000
  53.9700000 161.9390000  10.8400000  54.5110000 162.8890000  10.3870000
  52.6740000 162.2380000  11.2540000  52.0310000 163.2270000  11.1350000
  52.0990000 161.5280000  12.2870000  51.0120000 161.7900000  12.6810000
  52.7980000 160.5170000  12.9070000  52.0750000 159.8220000  13.5340000
  54.1000000 160.2210000  12.5010000  54.6350000 159.5350000  13.3060000
  57.4880000 159.4490000   9.2290000  58.1680000 158.4580000   9.4860000
  57.9010000 160.4580000   8.4680000  57.3450000 161.4940000   8.6150000
  59.2340000 160.5290000   7.8910000  59.3630000 159.5870000   7.1910000
  60.0000000 160.6690000   8.7870000  59.5490000 161.8270000   7.1780000
  58.7140000 162.7330000   7.1320000  60.7720000 161.9300000   6.6280000
  61.6220000 161.5450000   7.3600000  61.2050000 163.1060000   5.8770000
  60.1920000 163.6410000   5.5900000  62.2140000 163.9660000   6.6530000
  63.2300000 163.3420000   6.5980000  62.3280000 165.3750000   6.0940000
  62.5320000 165.5320000   4.9430000  61.4540000 166.1040000   6.4290000
  63.3610000 165.7230000   6.5740000  61.8520000 164.0370000   8.0220000
  62.2310000 164.9820000   8.6050000  61.8360000 162.6560000   4.5840000
  62.5080000 161.6240000   4.5470000  61.6150000 163.4440000   3.5190000
  61.1280000 164.5080000   3.5430000  62.2100000 163.2310000   2.2100000
  62.0630000 162.1020000   1.8810000  61.4250000 163.9690000   1.1130000
  61.7460000 163.8110000  -0.0290000  59.9740000 163.5200000   1.0060000
  59.4960000 164.1340000   0.0980000  59.7830000 162.3720000   0.7700000
  59.2000000 163.7740000   1.8490000  61.5060000 165.3760000   1.3260000
  62.5540000 165.8010000   1.1390000  63.6480000 163.7360000   2.3060000
  63.9180000 164.6880000   3.0430000  64.5640000 163.0760000   1.5950000
  64.1350000 162.7970000   0.5300000  65.9800000 163.4150000   1.5550000
  66.1020000 164.4030000   2.2000000  66.7890000 162.3020000   2.1840000
  66.8930000 161.3460000   1.4810000  67.8460000 162.6490000   2.5720000
  66.1090000 161.9470000   3.0940000  66.3670000 163.5770000   0.0960000
  66.1760000 162.6520000  -0.6990000  66.8840000 164.7540000  -0.2670000
  67.1430000 165.6860000   0.4000000  67.2980000 165.0460000  -1.6350000
  66.7850000 164.2520000  -2.3430000  66.7900000 166.4410000  -2.0050000
  65.6670000 166.5710000  -1.6450000  67.5360000 167.2970000  -1.6440000
  66.8040000 166.7720000  -3.4870000  67.9320000 166.9880000  -3.7150000
  66.4270000 166.0120000  -4.2940000  66.3560000 168.1850000  -3.7900000
  65.2040000 168.5450000  -3.4530000  67.1790000 168.9410000  -4.3500000
  68.8300000 164.9790000  -1.7080000  69.4950000 165.6740000  -0.9350000
  69.3920000 164.1350000  -2.6010000  68.6360000 163.2340000  -2.5930000
  70.8540000 163.9870000  -2.7570000  71.3150000 163.7170000  -1.7010000
  71.2320000 162.7270000  -3.5900000  70.6870000 162.8830000  -4.6350000
  72.7640000 162.5750000  -3.7290000  73.1750000 161.4960000  -3.5490000
  73.0940000 162.9230000  -4.8170000  73.4420000 163.2890000  -3.0580000
  70.6010000 161.4550000  -2.9780000  69.5620000 161.4800000  -2.4400000
  71.3920000 160.9960000  -2.2170000  70.4130000 160.2750000  -3.9410000
  69.4870000 160.5410000  -4.6380000  71.3610000 160.0080000  -4.5970000
  70.3510000 159.2270000  -3.3630000  71.4750000 165.2700000  -3.3260000
  71.0020000 165.7800000  -4.3390000  72.5130000 165.8030000  -2.6620000
  72.4590000 165.9230000  -1.5000000  73.1640000 167.0350000  -3.1130000
  72.7010000 167.4450000  -4.1280000  73.0100000 168.1710000  -2.0860000
  71.8300000 168.2950000  -2.0390000  73.3100000 169.2720000  -2.4320000
  73.8040000 168.0710000  -0.8000000  75.1110000 168.5430000  -0.7300000
  75.4980000 169.3920000  -1.4690000  75.8300000 168.5120000   0.4610000
  76.6050000 169.4140000   0.4580000  75.2190000 168.0770000   1.6250000
  75.9400000 168.0780000   2.7960000  76.1810000 169.1530000   3.2380000
  73.9010000 167.6520000   1.5940000  73.3410000 167.9870000   2.5820000
  73.1940000 167.6790000   0.3900000  72.0350000 167.4750000   0.3850000
  74.6200000 166.8150000  -3.5340000  75.1080000 167.5370000  -4.4010000
  75.2960000 165.8170000  -2.9260000  75.0780000 165.9350000  -1.7700000
  76.6640000 165.3810000  -3.2260000  76.9670000 165.9550000  -4.2220000
  77.6030000 165.7540000  -2.0970000  77.8050000 166.9330000  -2.0900000
  77.1680000 165.2430000  -1.1360000  78.7490000 165.4660000  -2.1830000
  76.6190000 163.8630000  -3.4170000  75.9280000 163.1810000  -2.6650000
  77.3200000 163.3480000  -4.4440000  78.3110000 163.9230000  -4.7450000
  77.2900000 161.9490000  -4.8820000  77.0080000 161.2670000  -3.9580000
  76.1850000 161.8540000  -5.9580000  76.6210000 162.5350000  -6.8200000
  75.0930000 162.0500000  -5.5420000  76.0850000 160.5570000  -6.7310000
  75.3630000 159.4800000  -6.2300000  75.5120000 159.2020000  -5.1010000
  75.2000000 158.3110000  -6.9650000  74.1930000 157.7440000  -6.6990000
  75.8180000 158.1810000  -8.1960000  75.6670000 157.0030000  -8.9020000
  75.2600000 156.0870000  -8.2790000  76.5380000 159.2460000  -8.7180000
  77.1010000 159.0330000  -9.7430000  76.6310000 160.4380000  -8.0020000
  77.3250000 161.0360000  -8.7630000  78.6430000 161.4720000  -5.4580000
  79.3010000 162.2330000  -6.1540000  79.0290000 160.2080000  -5.2160000
  78.2930000 159.3130000  -5.0050000  80.2810000 159.6700000  -5.7670000
  80.1960000 160.0050000  -6.9130000  81.5350000 160.1280000  -4.9900000
  81.6960000 159.4110000  -4.0520000  81.4950000 161.3030000  -4.8260000
  82.8110000 160.0790000  -5.8430000  82.9870000 159.0210000  -6.3800000
  82.7590000 160.8260000  -6.7750000  84.0650000 160.3360000  -5.0380000
  84.3910000 159.4340000  -4.3240000  83.9950000 161.2940000  -4.3380000
  85.2090000 160.5760000  -5.9220000  85.1250000 160.5210000  -7.1070000
  86.4610000 160.7530000  -5.5070000  86.7550000 160.7010000  -4.2110000
  87.1150000 159.6620000  -3.7510000  87.2700000 161.4850000  -3.4880000
  87.4320000 160.9720000  -6.3850000  88.5830000 160.9940000  -6.0880000
  87.5130000 160.7280000  -7.5490000  80.2850000 158.1610000  -5.8940000
  80.0430000 157.4570000  -4.9120000  80.6120000 157.6660000  -7.0990000
  80.9610000 158.2380000  -8.0850000  80.6900000 156.2350000  -7.3580000
  80.1870000 155.6230000  -6.4820000  80.0110000 155.8930000  -8.6800000
  80.2640000 156.6330000  -9.5820000  80.4260000 154.8730000  -9.1570000
  78.5080000 155.7520000  -8.5910000  77.7870000 156.6480000  -8.4960000
  78.3950000 154.9500000  -7.7610000  77.8910000 155.1730000  -9.8520000
  77.8140000 153.9280000  -9.9640000  77.4730000 155.9670000 -10.7250000
  82.1380000 155.7520000  -7.3670000  83.0060000 156.4060000  -7.9400000
  82.4020000 154.6310000  -6.7170000  82.0500000 154.6460000  -5.5880000
  83.7310000 154.0210000  -6.7030000  84.2760000 154.3980000  -7.6960000
  84.5120000 154.2320000  -5.3920000  84.1850000 153.8100000  -4.3330000
  85.5770000 153.7010000  -5.5390000  84.9530000 155.6370000  -5.0480000
  84.2710000 156.5720000  -5.3200000  85.9860000 155.9440000  -5.5700000
  85.1690000 155.7640000  -3.5510000  86.2930000 155.4590000  -3.0840000
  84.1820000 156.0640000  -2.8360000  83.5410000 152.5420000  -6.8680000
  82.4900000 151.9880000  -6.5570000  84.5720000 151.9060000  -7.3430000
  85.4550000 152.4360000  -7.9360000  84.6060000 150.4880000  -7.5160000
  83.7250000 150.0980000  -6.8340000  84.6190000 150.1620000  -9.0080000
  84.2730000 151.0580000  -9.7200000  85.7170000 149.9340000  -9.4290000
  83.8200000 148.9220000  -9.3250000  84.3140000 147.8690000  -9.1940000
  82.9150000 148.8990000  -8.5710000  83.7650000 148.7060000 -10.7880000
  84.7470000 148.3050000 -11.4050000  82.6100000 148.9630000 -11.3630000
  81.9200000 149.9090000 -11.2300000  82.4500000 148.6350000 -12.4980000
  85.8880000 150.0900000  -6.8230000  86.9370000 150.7170000  -7.0110000
  85.7780000 149.1270000  -5.9450000  84.7600000 148.6070000  -5.6640000
  86.8850000 148.6920000  -5.1290000  87.7350000 148.4950000  -5.9490000
  87.0230000 149.6820000  -3.9700000  86.1410000 150.4490000  -3.8670000
  87.0950000 149.1290000  -2.9140000  88.3060000 150.4870000  -3.9610000
  89.3300000 149.8760000  -4.0060000  88.5020000 151.2850000  -4.8280000
  88.3840000 151.4450000  -2.7850000  87.3280000 151.9890000  -2.3680000
  89.5160000 151.6520000  -2.2860000  86.5270000 147.3750000  -4.5240000
  85.3520000 147.0890000  -4.3410000  87.5300000 146.5960000  -4.1580000
  88.6670000 146.7430000  -4.4650000  87.3960000 145.3240000  -3.4460000
  88.3220000 144.5760000  -3.5600000  87.1490000 145.5680000  -1.9580000
  87.4260000 144.9210000  -1.0030000  86.0080000 145.4230000  -1.7910000
  88.0470000 146.6230000  -1.3620000  89.4280000 146.4530000  -1.3270000
  89.9490000 145.3940000  -1.4750000  90.2630000 147.4350000  -0.7960000
  91.3830000 147.0540000  -0.6720000  89.7130000 148.5750000  -0.2270000
  90.5110000 149.5440000   0.3500000  91.6780000 149.4100000   0.2220000
  88.3410000 148.7620000  -0.2590000  87.9110000 149.6240000   0.4350000
  87.5200000 147.7900000  -0.8300000  86.4160000 147.8460000  -0.3980000
  86.3520000 144.3670000  -3.9990000  85.7770000 143.5860000  -3.2540000
  86.1470000 144.4170000  -5.2990000  86.9680000 144.7990000  -6.0730000
  85.2220000 143.5490000  -6.0040000  85.8650000 143.2320000  -6.9520000
  84.9630000 142.4680000  -5.6230000  83.7990000 144.0200000  -6.0050000
  82.9460000 143.3240000  -6.5470000  83.5390000 145.2130000  -5.4520000
  84.2490000 145.9050000  -6.0410000  82.1820000 145.7680000  -5.3230000
  81.5290000 145.0860000  -6.0530000  81.6560000 145.7590000  -3.8450000
  80.5920000 146.2750000  -3.6920000  81.3480000 144.3420000  -3.4180000
  80.2030000 144.0570000  -3.6480000  81.8820000 143.4160000  -3.9620000
  81.4220000 143.8880000  -2.3100000  82.6280000 146.4470000  -2.8610000
  82.9160000 147.5820000  -3.0480000  83.5090000 145.7220000  -2.7790000
  82.2330000 146.4950000  -1.4440000  81.3860000 145.8110000  -0.9460000
  81.9750000 147.5890000  -1.0480000  83.1550000 146.2140000  -0.7280000
  82.0120000 147.1380000  -5.9340000  82.9820000 147.8480000  -6.1900000
  80.7510000 147.4910000  -6.1710000  79.8540000 146.7140000  -6.1470000
  80.3350000 148.8000000  -6.6630000  81.1220000 149.4720000  -7.2440000
  79.2450000 148.6970000  -7.7530000  79.0820000 149.8570000  -7.9610000
  78.2980000 147.9860000  -7.5570000  79.7050000 148.0840000  -9.0620000
  79.6470000 146.9150000  -9.1780000  80.8290000 148.3120000  -9.3590000
  78.7330000 148.3220000 -10.1960000  77.5790000 147.8450000 -10.0970000
  79.1070000 149.0310000 -11.1600000  79.8020000 149.4840000  -5.4180000
  78.9490000 148.9310000  -4.7060000  80.3850000 150.6290000  -5.1040000
  81.5080000 150.6750000  -5.4490000  80.0870000 151.3910000  -3.9070000
  79.1050000 150.8910000  -3.4700000  81.2100000 151.2260000  -2.9100000
  81.5130000 150.0970000  -2.6740000  82.4220000 152.0940000  -3.2000000
  82.2170000 153.2660000  -3.1720000  83.1230000 151.5310000  -3.9820000
  83.2350000 152.0850000  -2.3160000  80.6550000 151.5760000  -1.6640000
  81.4210000 151.9720000  -0.8580000  79.7480000 152.8550000  -4.1970000
  80.2250000 153.4300000  -5.1760000  78.9030000 153.4470000  -3.3670000
  79.2360000 153.3210000  -2.2390000  78.4820000 154.8200000  -3.5770000
  79.4720000 155.2600000  -4.0550000  77.1850000 154.8730000  -4.4090000
  77.2290000 154.1740000  -5.3770000  75.9950000 154.3820000  -3.6080000
  75.2790000 153.9500000  -4.4490000  75.5850000 155.1750000  -2.8230000
  76.3080000 153.4840000  -2.8960000  76.9270000 156.2650000  -4.9470000
  77.3320000 157.1930000  -4.3300000  77.2510000 156.5210000  -6.0640000
  75.7470000 156.4340000  -4.9770000  78.4040000 155.5850000  -2.2560000
  78.0840000 155.0160000  -1.2060000  78.7920000 156.8580000  -2.3090000
  79.7000000 157.1390000  -3.0040000  78.8100000 157.7690000  -1.1710000
  78.2180000 157.1670000  -0.3370000  80.2410000 158.2140000  -0.8570000
  80.8000000 158.7730000  -1.7420000  80.2020000 159.1090000  -0.0700000
  81.0820000 157.0840000  -0.3090000  81.0530000 156.0640000  -0.9210000
  80.7030000 157.0710000   0.8140000  82.5370000 157.4680000  -0.1550000
  82.6050000 158.4020000   0.5970000  83.0510000 157.7280000  -1.1970000
  83.3330000 156.3300000   0.4380000  83.5360000 155.6060000  -0.4940000
  83.1520000 155.5430000   1.3120000  84.7080000 156.7570000   0.8110000
  84.9990000 157.0510000   1.9330000  85.4130000 155.7910000   0.6920000
  85.3200000 157.5690000   0.1760000  77.9300000 158.9470000  -1.5230000
  77.9980000 159.4370000  -2.6440000  77.0180000 159.3220000  -0.6290000
  77.3200000 159.2200000   0.5060000  76.1050000 160.4440000  -0.8630000
  76.7530000 161.1240000  -1.5840000  74.6680000 160.0640000  -1.3540000
  74.0980000 161.1030000  -1.4340000  74.6960000 159.2350000  -2.6190000
  74.1530000 158.1680000  -2.5970000  75.7610000 158.8470000  -2.9710000
  74.0610000 159.6680000  -3.5180000  73.8480000 159.3680000  -0.2860000
  72.6910000 159.3870000  -0.6000000  74.0810000 158.2100000  -0.3000000
  73.7880000 159.9500000   0.7520000  76.0500000 161.3820000   0.3380000
  76.4060000 160.9950000   1.4650000  75.6190000 162.6210000   0.0700000
  76.2710000 163.2160000  -0.7070000  75.3400000 163.6630000   1.0550000
  75.2960000 163.0400000   2.0600000  76.3980000 164.7880000   1.0630000
  75.5120000 165.4070000   1.5480000  76.8970000 165.7640000   0.6000000
  77.6350000 164.4870000   1.9320000  78.0690000 163.5060000   2.4030000
  77.1460000 164.9030000   2.9250000  78.9010000 165.2860000   1.5650000
  79.9840000 165.0440000   2.0110000  79.1380000 164.9600000   0.4460000
  78.8000000 166.7610000   1.8480000  78.8740000 166.9620000   3.0230000
  77.9570000 167.5270000   1.5250000  79.9320000 167.4970000   1.2470000
  79.7720000 168.6840000   1.2120000  81.0840000 167.4830000   1.5710000
  80.1170000 167.3060000   0.0770000  73.9670000 164.1490000   0.6510000
  73.7590000 164.5370000  -0.5040000  72.9990000 163.9430000   1.5290000
  73.2200000 163.8820000   2.6860000  71.6220000 164.3140000   1.2460000
  71.5060000 164.9660000   0.2690000  70.7340000 163.0730000   1.1860000
  70.4360000 162.7080000   0.0950000  71.2430000 162.1250000   1.6990000
  69.7540000 163.2830000   1.8220000  71.1240000 165.2920000   2.2930000
  71.7690000 165.4810000   3.3220000  69.9970000 165.9450000   2.0220000
  69.3990000 166.0020000   1.0110000  69.4300000 166.9320000   2.9420000
  69.8290000 166.5520000   3.9870000  69.8600000 168.3680000   2.5260000
  71.0400000 168.4810000   2.6140000  69.4880000 168.6660000   1.0510000
  69.3490000 169.8520000   0.9970000  70.2580000 168.6210000   0.1420000
  68.4670000 168.2320000   0.6210000  69.3160000 169.4230000   3.4980000
  68.1310000 169.5550000   3.4060000  69.7770000 169.1420000   4.5630000
  69.8060000 170.7730000   3.2720000  69.4430000 171.9010000   3.0820000
  70.2900000 171.0390000   4.3410000  70.8100000 170.8460000   2.6200000
  67.9230000 166.7630000   3.0780000  67.2270000 166.5400000   2.0870000
  67.4500000 166.8470000   4.3120000  68.0130000 167.4550000   5.1440000
  66.0320000 166.7750000   4.6400000  65.0870000 166.0990000   4.8410000
  66.3560000 166.5370000   5.7640000  65.2720000 167.9110000   3.9900000
  65.7320000 169.0640000   3.9660000  64.1320000 167.5760000   3.4120000
  63.5990000 166.5410000   3.3130000  63.3490000 168.5640000   2.6960000
  63.6760000 169.6930000   2.9060000  63.2680000 168.2050000   1.1990000
  62.6400000 169.2130000   1.0750000  62.5650000 167.6030000   0.4420000
  64.5850000 168.1680000   0.4620000  64.4800000 166.9970000   0.3380000
  65.7540000 168.2040000   0.6590000  64.8300000 169.4530000  -0.2850000
  65.2180000 169.9200000  -1.3100000  63.7170000 169.5050000  -0.7170000
  65.5540000 170.4240000   0.5290000  64.9230000 171.1670000   1.2080000
  66.7350000 170.9280000   0.1960000  67.3320000 170.5520000  -0.9310000
  67.2380000 169.8850000  -1.9070000  68.4850000 170.8360000  -0.9970000
  67.3270000 171.8210000   0.9800000  68.1090000 172.2270000   1.7610000
  66.8270000 172.8970000   0.8180000  61.9550000 168.7040000   3.2820000
  61.6730000 169.6800000   3.9690000  61.0960000 167.7150000   3.0160000
  61.4590000 166.7020000   3.4980000  59.6900000 167.7080000   3.3640000
  59.4670000 168.7710000   3.8540000  58.8680000 167.6570000   2.0760000
  59.1480000 166.5870000   1.6400000  57.7600000 167.8900000   2.4570000
  59.2180000 168.7530000   1.0770000  58.7600000 169.7110000   1.5990000
  60.2440000 169.0700000   0.6450000  58.4350000 168.6790000  -0.2070000
  58.0710000 169.7050000  -0.7760000  58.1780000 167.4770000  -0.7100000
  57.8790000 166.4720000  -0.1780000  59.1980000 167.1560000  -1.2480000
  59.2880000 166.5460000   4.2570000  59.6040000 165.3940000   3.9490000
  58.5430000 166.8530000   5.3470000  58.0360000 167.9230000   5.3820000
  58.0140000 165.8470000   6.2660000  58.8900000 165.1270000   6.6060000
  57.5290000 166.4760000   7.5760000  57.0480000 165.6550000   8.2990000
  56.6810000 167.2290000   7.2200000  58.5850000 167.1840000   8.4480000
  58.9630000 168.0660000   7.7440000  59.3430000 166.2970000   8.6620000
  57.9370000 168.0380000   9.5510000  57.5900000 167.2600000  10.3770000
  58.6860000 168.7030000  10.1830000  56.9020000 168.9300000   9.0100000
  57.1860000 169.6460000   8.1030000  55.6000000 168.7890000   9.2310000
  55.1600000 167.8550000  10.0630000  54.7870000 166.8110000  10.4880000
  55.0420000 168.4580000  11.0780000  54.7300000 169.5930000   8.6350000
  54.9130000 170.1100000   7.5860000  53.5870000 169.6920000   8.9450000
  56.8310000 165.1860000   5.5760000  56.1970000 165.7940000   4.7030000
  56.5380000 163.9400000   5.9470000  56.6810000 163.6690000   7.0910000
  55.4160000 163.2260000   5.3540000  54.7380000 164.0870000   4.9050000
  55.8190000 162.4580000   4.0790000  54.8810000 162.1090000   3.4810000
  56.4090000 163.1540000   3.3140000  56.8580000 161.3850000   4.2920000
  56.5390000 160.2030000   4.9550000  55.7210000 160.0530000   5.7950000
  57.4980000 159.2070000   5.1450000  57.5260000 158.4730000   6.0700000
  58.7720000 159.3780000   4.6540000  59.7350000 158.7600000   4.9300000
  59.1090000 160.5420000   3.9960000  60.1720000 160.7800000   3.5550000
  58.1530000 161.5450000   3.8140000  58.5290000 162.6660000   3.8240000
  54.7310000 162.3140000   6.3510000  55.2600000 162.0390000   7.4320000
  53.5650000 161.8170000   5.9390000  52.9240000 162.4000000   5.1540000
  52.6940000 160.8960000   6.6580000  52.9580000 160.8420000   7.8170000
  51.2770000 161.5160000   6.7170000  50.7330000 161.3940000   5.7010000
  51.5490000 162.4780000   7.2810000  50.2650000 160.8410000   7.6370000
  50.5020000 159.6990000   7.5580000  50.2550000 160.9960000   8.8050000
  48.8430000 161.3860000   7.3820000  48.3710000 161.4750000   6.2910000
  48.1840000 160.5240000   7.8390000  48.6120000 162.7960000   7.8990000
  48.4800000 162.5270000   9.0620000  49.2210000 163.7990000   8.0790000
  47.2620000 163.3180000   7.5530000  46.4260000 162.7090000   6.9480000
  47.1230000 164.4270000   7.1230000  46.6470000 163.4880000   8.5720000
  52.6910000 159.5900000   5.8290000  52.4060000 159.6360000   4.6270000
  53.0440000 158.4490000   6.4540000  53.8190000 158.6400000   7.3200000
  53.0710000 157.1380000   5.7850000  53.6360000 157.3970000   4.7760000
  53.9120000 156.0960000   6.5770000  53.2600000 156.0800000   7.5780000
  53.6850000 154.6660000   6.0840000  52.6560000 154.1720000   6.4250000
  54.3820000 153.9200000   6.6900000  53.8100000 154.4420000   4.9270000
  55.3920000 156.4490000   6.5360000  55.8040000 156.6180000   7.6410000
  55.9890000 155.5470000   6.0350000  55.6860000 157.3640000   5.8400000
  51.6440000 156.6620000   5.5360000  50.7960000 156.7530000   6.4300000
  51.3770000 156.1790000   4.3180000  52.3290000 156.1020000   3.6380000
  50.0580000 155.6720000   3.9610000  49.2400000 155.6750000   4.8420000
  49.5470000 156.3190000   2.6570000  48.4250000 155.9180000   2.5190000
  50.0080000 155.7810000   1.7090000  49.4640000 157.8720000   2.6490000
  50.4550000 158.3270000   3.1080000  49.1500000 158.4060000   1.2720000
  47.9910000 158.6960000   1.1290000  49.2020000 157.6370000   0.3540000
  49.6750000 159.3710000   0.8310000  48.4420000 158.4020000   3.6510000
  47.4650000 158.9330000   3.2030000  47.8640000 157.6330000   4.3690000
  48.7690000 159.1840000   4.4910000  50.0790000 154.1440000   3.9020000
  49.1960000 153.4940000   4.4570000  51.1420000 153.5790000   3.3100000
  52.1160000 154.1280000   2.9370000  51.3770000 152.1410000   3.1660000
  51.0250000 151.5970000   4.1700000  50.4600000 151.5790000   2.0530000
  49.2890000 151.7770000   2.2550000  50.7370000 151.9890000   0.9790000
  50.4220000 150.0590000   1.9390000  49.7980000 149.4990000   2.7950000
  51.4250000 149.4210000   1.8730000  49.7070000 149.4970000   0.7230000
  48.6290000 150.0230000   0.3590000  50.2140000 148.5010000   0.1550000
  52.8540000 151.9110000   2.7930000  53.3990000 152.6790000   1.9940000
  53.4950000 150.8640000   3.3570000  53.0270000 150.1300000   4.1650000
  54.8740000 150.5230000   2.9900000  55.2520000 151.3800000   2.2660000
  55.9220000 150.5310000   4.1490000  55.6050000 149.5960000   4.8230000
  57.3240000 150.3140000   3.5870000  57.2310000 149.2160000   3.1190000
  58.1870000 150.2860000   4.4130000  57.7130000 151.1390000   2.8320000
  55.8810000 151.8450000   4.9560000  54.7260000 152.0770000   5.1120000
  56.4640000 152.7570000   4.4780000  56.4390000 151.7810000   6.4380000
  56.6870000 150.6580000   6.7720000  55.5630000 151.9550000   7.2340000
  57.3650000 152.3880000   6.8580000  54.8770000 149.2150000   2.1750000
  54.8450000 148.1160000   2.7420000  54.8820000 149.3460000   0.8410000
  54.5100000 150.3100000   0.2650000  54.9510000 148.2140000  -0.0730000
  54.1880000 147.4230000   0.4000000  54.3680000 148.5930000  -1.4430000
  53.1790000 148.7520000  -1.5040000  54.6520000 149.6180000  -1.9820000
  54.9210000 147.2750000  -2.0030000  53.7870000 146.8520000  -2.0290000
  55.2780000 146.1280000  -1.9850000  55.2470000 147.3850000  -3.4700000
  54.6670000 148.3670000  -3.8570000  56.3760000 147.7560000  -3.4390000
  54.4960000 146.6480000  -4.4820000  53.3730000 146.2920000  -4.6430000
  55.3770000 146.2990000  -5.4430000  56.6750000 146.6320000  -5.3060000
  57.3970000 145.9750000  -4.6590000  57.0490000 146.9760000  -6.3830000
  54.9500000 145.6230000  -6.5250000  54.4300000 146.0870000  -7.4890000
  55.0230000 144.4440000  -6.6340000  56.4260000 147.8020000  -0.1860000
  57.3070000 148.6390000   0.0010000  56.6960000 146.5210000  -0.4660000
  55.9670000 145.7090000   0.0050000  58.0670000 146.0130000  -0.5600000
  58.7620000 146.9570000  -0.4090000  58.3370000 145.0390000   0.6050000
  57.6400000 144.0690000   0.5680000  59.8150000 144.6580000   0.7430000
  60.4650000 144.6210000   1.7570000  60.7550000 144.6700000   0.0080000
  59.6120000 143.4710000   0.6870000  57.8650000 145.6260000   1.8250000
  58.5890000 145.5500000   2.7310000  58.3750000 145.4220000  -1.9560000
  57.4970000 144.8420000  -2.6070000  59.6350000 145.5920000  -2.4040000
  60.5160000 146.0470000  -1.7620000  60.1310000 145.0900000  -3.6870000
  59.2630000 144.5910000  -4.3380000  60.9430000 146.1600000  -4.4240000
  62.0250000 146.3120000  -3.9690000  61.1720000 145.7550000  -5.5300000
  60.1510000 147.3870000  -4.8380000  59.8340000 147.9980000  -3.8760000
  59.2610000 147.1490000  -5.5790000  60.9890000 148.3340000  -5.6560000
  62.1730000 148.5700000  -5.3740000  60.3820000 148.9050000  -6.6910000
  60.8130000 148.6380000  -7.7730000  59.4880000 149.6190000  -6.9970000
  60.9850000 143.8380000  -3.5030000  61.5580000 143.6170000  -2.4240000
  61.0740000 143.0360000  -4.5890000  60.6830000 143.3610000  -5.6660000
  61.8150000 141.7750000  -4.6940000  61.3570000 140.9690000  -3.9390000
  61.6940000 141.2020000  -6.1030000  62.0260000 141.6960000  -7.1180000
  62.2290000 140.1350000  -6.0900000  60.3390000 140.9980000  -6.4760000
  59.5580000 141.0240000  -5.5950000  63.2910000 141.8990000  -4.2980000
  63.7980000 141.0370000  -3.5740000  63.9670000 142.9880000  -4.7370000
  63.5740000 143.3970000  -5.7670000  65.3840000 143.2600000  -4.4370000
  65.9260000 142.2250000  -4.6890000  65.9380000 144.3570000  -5.3650000
  67.1220000 144.2120000  -5.3520000  65.7600000 144.1720000  -6.5330000
  65.2490000 145.7010000  -5.2190000  64.0690000 145.8130000  -5.6310000
  65.8980000 146.6470000  -4.7250000  65.6640000 143.5970000  -2.9520000
  66.8310000 143.6900000  -2.5540000  64.5980000 143.7750000  -2.1690000
  63.5050000 144.0870000  -2.4850000  64.6740000 144.0820000  -0.7470000
  64.0270000 143.2500000  -0.1770000  65.7050000 143.8420000  -0.2000000
  64.3410000 145.5130000  -0.3770000  63.8800000 145.7540000   0.7410000
  64.5780000 146.4800000  -1.2950000  65.1780000 146.1350000  -2.2530000
  64.3250000 147.8970000  -1.0020000  64.5970000 147.8960000   0.1590000
  65.2240000 148.9180000  -1.8000000  65.1340000 149.8570000  -1.0820000
  66.6790000 148.4710000  -1.9010000  67.4490000 149.3720000  -1.8690000
  66.9240000 147.6650000  -1.0640000  66.8960000 147.9300000  -2.9450000
  64.6740000 149.2810000  -3.1930000  64.0700000 148.3900000  -3.6630000
  65.4870000 149.4900000  -4.0500000  63.7960000 150.5520000  -3.2010000
  62.6520000 150.2240000  -3.1000000  63.8510000 150.9930000  -4.3140000
  63.9990000 151.4250000  -2.4300000  62.7980000 148.1950000  -1.0740000
  62.1060000 147.7520000  -1.9960000  62.2990000 148.9440000  -0.0840000
  63.0360000 149.3720000   0.7410000  60.8870000 149.2910000   0.0450000
  60.2830000 148.5250000  -0.6300000  60.4890000 149.3570000   1.5200000
  61.3030000 150.1140000   1.9210000  59.4770000 149.7500000   1.9550000
  60.6440000 148.0290000   2.2220000  61.7770000 147.8140000   2.5480000
  60.4880000 147.0550000   1.5620000  60.2610000 148.1380000   3.6610000
  60.9430000 148.7840000   4.4660000  59.1580000 147.5000000   4.0130000
  58.2790000 147.7030000   4.7950000  59.5830000 146.4950000   4.5040000
  60.4930000 150.5780000  -0.6610000  61.3410000 151.3640000  -1.0780000
  59.1880000 150.7730000  -0.8010000  58.4150000 150.1930000  -0.1310000
  58.5810000 151.9400000  -1.4220000  59.3550000 152.8310000  -1.5150000
  57.9460000 151.5730000  -2.7770000  57.4190000 152.4920000  -3.3060000
  57.0200000 150.8220000  -2.6880000  58.9360000 151.1070000  -3.8550000
  58.3160000 150.7040000  -4.7710000  59.6590000 150.3130000  -3.3520000
  59.8020000 152.2030000  -4.4310000  59.3510000 153.3190000  -4.6970000
  61.0480000 151.8790000  -4.7240000  61.3900000 151.2020000  -5.6490000
  61.4330000 152.8560000  -5.2850000  57.5140000 152.4520000  -0.4650000
  56.8200000 151.6570000   0.1780000  57.3830000 153.7660000  -0.3510000
  57.9330000 154.6790000  -0.8370000  56.3920000 154.2800000   0.5650000
  55.7210000 153.3940000   0.9720000  57.0670000 154.8990000   1.7720000
  57.9220000 154.1680000   2.1650000  56.3910000 154.9860000   2.7480000
  57.6840000 155.8970000   1.5820000  55.4230000 155.2500000  -0.0800000
  55.8480000 156.2580000  -0.6520000  54.1120000 154.9020000  -0.0320000
  53.7900000 153.7860000   0.1320000  53.0230000 155.7660000  -0.4800000
  53.3640000 156.3050000  -1.4780000  51.7170000 154.9930000  -0.7320000
  50.7070000 155.6260000  -0.5120000  51.6580000 153.8670000  -0.3460000
  51.2890000 154.6460000  -2.2010000  51.5560000 155.7340000  -2.5860000
  51.6770000 154.3060000  -3.2590000  49.8530000 154.0410000  -2.3220000
  49.7170000 152.9440000  -1.8320000  48.9800000 154.7420000  -1.9360000
  49.4960000 153.7080000  -3.7780000  49.1790000 154.6870000  -4.3900000
  48.4650000 153.0950000  -3.8560000  50.5010000 152.9010000  -4.4990000
  50.4590000 151.7970000  -4.0200000  49.9220000 152.7400000  -5.5470000
  51.6140000 152.8570000  -4.9760000  52.8910000 156.6900000   0.7150000
  52.6640000 156.2350000   1.8450000  53.2360000 157.9560000   0.4990000
  54.1600000 158.0820000  -0.2070000  53.2770000 158.9490000   1.5600000
  52.6050000 158.5060000   2.4300000  54.7270000 159.2860000   1.9940000
  54.6560000 159.9860000   2.9450000  55.4710000 158.0350000   2.4380000
  56.5880000 157.9330000   2.0200000  55.7360000 158.0690000   3.5970000
  54.9380000 156.9780000   2.3050000  55.4960000 160.0210000   0.9000000
  55.3520000 159.8630000  -0.2680000  56.6750000 159.8860000   1.0550000
  55.3580000 161.2030000   1.0190000  52.5070000 160.1790000   1.1660000
  52.2850000 160.3950000  -0.0300000  52.1010000 160.9830000   2.1660000
  52.5070000 161.0040000   3.2690000  51.3810000 162.2250000   1.9440000
  51.1200000 162.3410000   0.7950000  49.9910000 162.1650000   2.5890000
  49.2440000 161.2780000   2.3180000  50.0290000 162.1830000   3.7740000
  49.1150000 163.3640000   2.2560000  48.4240000 163.1750000   1.2980000
  49.7250000 164.3770000   2.2510000  47.9690000 163.5150000   3.2160000
  47.0020000 162.7390000   3.1950000  48.0470000 164.5400000   4.0650000
  47.0470000 165.1880000   4.1200000  48.7330000 164.7640000   4.9940000
  52.2140000 163.3510000   2.5320000  52.5260000 163.3080000   3.7250000
  52.5900000 164.3460000   1.6990000  51.7610000 164.7240000   0.9580000
  53.3970000 165.4840000   2.1430000  54.2870000 164.9090000   2.6740000
  53.9770000 166.3210000   0.9600000  53.1400000 166.5490000   0.1510000
  54.3800000 167.7440000   1.3860000  54.7600000 168.4010000   0.4590000
  53.5200000 168.4160000   1.8650000  55.2890000 168.0140000   2.1180000
  55.2140000 165.6480000   0.3660000  55.7730000 166.4180000  -0.3110000
  55.9350000 165.3480000   1.2680000  54.9790000 164.4650000  -0.4110000
  53.9840000 163.8050000  -0.4300000  55.0070000 164.7690000  -1.5650000
  55.8240000 163.6640000  -0.1570000  52.6350000 166.3240000   3.1640000
  51.4840000 166.6970000   2.9320000  53.2730000 166.5890000   4.3070000
  54.4110000 166.8890000   4.2330000  52.6800000 167.4160000   5.3450000
  51.5250000 167.2210000   5.1260000  53.1270000 166.9760000   6.7490000
  52.4920000 167.6100000   7.5390000  54.2470000 167.3690000   6.7850000
  52.8510000 165.5260000   7.1420000  53.1930000 164.7550000   6.3120000
  53.5150000 165.1910000   8.4690000  54.2220000 164.2350000   8.4980000
  52.8250000 165.0980000   9.4400000  54.2380000 166.0910000   8.7220000
  51.3580000 165.2200000   7.1660000  50.9660000 164.4350000   6.3650000
  51.0110000 165.1780000   8.3080000  50.5740000 166.0590000   6.8130000
  53.0570000 168.8780000   5.0840000  54.2460000 169.1770000   4.9400000
  52.0750000 169.8050000   4.9910000  50.6170000 169.6330000   5.1250000
  50.8340000 168.9050000   6.0460000  49.5200000 169.6680000   5.6240000
  50.0940000 170.7350000   4.2900000  49.0720000 171.3440000   4.4750000
  49.7980000 170.1410000   3.3110000  51.0820000 171.8700000   4.4130000
  50.6690000 172.6540000   5.2180000  51.0750000 172.6600000   3.5180000
  52.4240000 171.2180000   4.7600000  53.1210000 171.2370000   3.7960000
  53.0010000 171.8780000   6.0010000  52.5720000 171.5760000   7.1200000
  53.9810000 172.7760000   5.7980000  54.4210000 172.7630000   4.6950000
  54.5600000 173.5590000   6.8820000  54.7010000 172.7490000   7.7400000
  55.9240000 174.1490000   6.4800000  56.3420000 175.2630000   6.5650000
  55.7630000 174.3220000   5.3190000  57.0950000 173.6810000   7.3450000
  57.3720000 173.1300000   6.3060000  58.1400000 173.1900000   7.6610000
  57.0260000 174.0240000   8.8230000  56.9180000 175.2250000   9.1650000
  57.0670000 173.0780000   9.6420000  53.5380000 174.6540000   7.1260000
  53.1610000 175.3570000   6.1750000  52.9950000 174.7270000   8.3590000
  53.7560000 174.5440000   9.2370000  51.9330000 175.6940000   8.6500000
  51.3550000 175.9290000   7.6360000  50.7940000 175.0830000   9.4890000
  51.1170000 174.4350000  10.4400000  50.1850000 176.0090000   9.9230000
  49.9780000 174.0620000   8.6720000  49.5050000 174.6210000   7.7270000
  50.5290000 173.1090000   8.3490000  48.7250000 173.5500000   9.3500000
  48.2480000 172.6600000   8.7170000  48.8580000 173.2510000  10.4930000
  47.6730000 174.5690000   9.4250000  47.6930000 175.6290000   8.8950000
  46.4530000 174.3640000   9.9200000  46.1100000 173.1690000  10.3910000
  45.2450000 173.2860000  11.2050000  46.1730000 171.9840000  10.2850000
  45.5670000 175.3500000   9.9460000  44.4850000 175.3790000   9.4520000
  45.6510000 176.3000000  10.6450000  52.4900000 176.9960000   9.2280000
  53.0930000 177.0310000  10.3150000  52.3480000 178.0570000   8.4210000
  51.6450000 178.1010000   7.4630000  52.8120000 179.3980000   8.7460000
  53.6120000 179.2130000   9.6070000  53.6020000 180.0390000   7.5790000
  52.9270000 180.1780000   6.6010000  54.1220000 181.4170000   7.9610000
  54.8580000 181.8500000   7.1160000  53.2410000 182.2230000   7.8670000
  54.7780000 181.7430000   8.9000000  54.7570000 179.1500000   7.1570000
  55.8210000 179.4440000   7.6220000  54.8290000 179.2070000   5.9540000
  54.7300000 177.9670000   7.2800000  51.6110000 180.2370000   9.1700000
  50.5880000 180.2620000   8.4770000  51.7300000 180.8940000  10.3200000
  52.7980000 181.3760000  10.4960000  50.6570000 181.7220000  10.8430000
  49.8150000 181.7690000  10.0050000  50.2370000 181.2490000  12.2440000
  49.4640000 181.9830000  12.7910000  51.2100000 181.3170000  12.9200000
  49.5790000 179.8830000  12.3510000  50.1180000 178.9360000  11.8600000
  49.3730000 179.5340000  13.7720000  50.3240000 179.1440000  14.3780000
  48.8320000 180.2490000  14.5710000  48.7080000 178.5380000  13.8860000
  48.2350000 179.8480000  11.6410000  47.5030000 180.7790000  11.4650000
  47.4010000 179.1560000  12.1600000  48.2530000 179.3450000  10.5520000
  51.0720000 183.1810000  10.8820000  52.2630000 183.4530000  11.0350000
  50.1320000 184.1450000  10.7720000  48.6700000 184.0100000  10.5990000
  48.1380000 183.5810000  11.5770000  48.2540000 183.5040000   9.6260000
  48.1680000 185.4240000  10.6800000  47.1530000 185.5080000  10.0450000
  47.6870000 185.6060000  11.7590000  49.3200000 186.2760000  10.2480000
  49.9400000 186.4050000   9.2310000  48.5990000 187.1560000   9.8810000
  50.5330000 185.5620000  10.8440000  51.5550000 185.6480000  10.2320000
  50.7630000 186.0020000  12.2950000  50.6280000 185.1750000  13.1980000
  51.0320000 187.3080000  12.5310000  51.6110000 187.8190000  11.6360000
  51.1810000 187.8530000  13.8830000  52.2220000 187.3370000  14.1640000
  51.3880000 189.3680000  13.8260000  52.4770000 189.4880000  13.3780000
  50.7860000 189.8880000  12.9540000  51.3060000 190.0160000  15.0900000
  51.8570000 191.0530000  15.0980000  49.8970000 187.5600000  14.6400000
  48.8230000 187.5530000  14.0380000  50.0000000 187.3320000  15.9550000
  51.1090000 187.0450000  16.2530000  48.8400000 187.0960000  16.8180000
  48.3380000 186.1600000  16.2760000  49.2670000 186.8350000  18.2800000
  48.8290000 187.7520000  18.8860000  48.5380000 185.6730000  18.8650000
  49.2280000 184.6950000  18.8670000  47.7740000 185.6300000  19.7690000
  47.6960000 185.1970000  18.1470000  50.6930000 186.6470000  18.4220000
  51.1440000 186.9360000  19.4690000  47.8660000 188.2910000  16.6910000
  46.6470000 188.1090000  16.5780000  48.4510000 189.5020000  16.5830000
  49.6000000 189.5240000  16.8720000  47.8130000 190.8140000  16.4790000
  46.8050000 190.5340000  17.0380000  48.7730000 191.8870000  16.9960000
  48.2670000 192.9630000  17.1270000  49.6480000 192.1360000  16.2300000
  49.1340000 191.7230000  18.4770000  49.4820000 191.9130000  19.5920000
  50.2340000 191.5150000  18.0640000  47.7600000 191.9770000  19.6490000
  47.4320000 190.3390000  20.0810000  47.0580000 190.7030000  21.1450000
  46.4830000 189.8190000  19.5890000  48.3450000 189.5940000  20.0790000
  47.3120000 191.2000000  15.1070000  46.4870000 192.0910000  15.0270000
  47.7920000 190.5500000  14.0290000  48.9710000 190.5050000  13.9900000
  47.4020000 190.8300000  12.6350000  47.7990000 191.8880000  12.2540000
  47.8920000 189.7170000  11.7220000  47.6580000 189.3890000  10.6070000
  48.8030000 190.3640000  11.2820000  47.2560000 188.5040000  12.0910000
  47.1520000 188.3320000  13.2530000  45.8830000 191.0430000  12.4460000
  45.4730000 192.0700000  11.9050000  45.0660000 190.0850000  12.9300000
  45.3620000 189.3440000  13.7980000  43.6010000 190.1010000  12.8710000
  43.2070000 190.0940000  11.7410000  43.0470000 188.7470000  13.3140000
  43.7870000 187.8600000  13.0110000  42.0880000 188.3390000  12.7320000
  42.6310000 188.6380000  14.4190000  42.9740000 191.2440000  13.7110000
  42.1600000 192.0140000  13.1990000  43.3770000 191.3710000  14.9810000
  43.9770000 190.4990000  15.5050000  42.8320000 192.3740000  15.8820000
  41.6620000 192.2210000  15.6570000  43.2090000 192.0540000  17.3470000
  42.9050000 190.9010000  17.4650000  44.6200000 192.5000000  17.6880000
  45.2790000 193.2560000  17.0640000  45.1070000 191.4380000  17.9140000
  44.5250000 192.8670000  18.8160000  42.2080000 192.6570000  18.3150000
  41.0810000 192.2960000  18.0750000  41.9890000 193.8110000  18.1610000
  42.2930000 192.1100000  19.3600000  43.1830000 193.8310000  15.4480000
  42.3880000 194.7350000  15.7230000  44.3190000 194.0590000  14.7380000
  44.8130000 193.3610000  13.9350000  44.6660000 195.4220000  14.3090000
  43.9170000 196.1910000  14.8130000  46.0430000 195.9090000  14.8410000
  46.0480000 196.0120000  16.0260000  46.2020000 196.9760000  14.3230000
  47.2900000 195.0980000  14.4500000  47.4100000 194.0420000  14.9790000
  47.5190000 195.0540000  13.2820000  48.5890000 195.6830000  14.9730000
  48.7290000 196.0370000  16.1530000  49.5960000 195.7420000  14.1140000
  50.2760000 196.5090000  13.5300000  50.2880000 194.7840000  13.9460000
  44.5030000 195.6540000  12.7620000  45.3210000 195.2440000  11.9310000
  43.3790000 196.2900000  12.4180000  42.4150000 196.4250000  13.0960000
  42.9770000 196.7910000  11.1040000  43.7070000 196.9610000  10.1750000
  41.8010000 195.9750000  10.5330000  40.9500000 195.5910000  11.2750000
  41.1890000 196.7760000   9.8860000  42.1690000 194.8510000   9.5590000
  42.9740000 195.1870000   8.7430000  42.6970000 193.6200000  10.2880000
  41.8440000 193.0050000  10.8520000  43.0880000 192.8440000   9.4600000
  43.7080000 193.6940000  10.8940000  40.9730000 194.4610000   8.7160000
  39.9390000 195.0670000   8.6870000  41.2290000 194.4850000   7.5440000
  40.5020000 193.3610000   8.7970000  42.5750000 198.2460000  11.4420000
  41.3920000 198.6340000  11.3680000  43.6010000 199.0200000  11.9200000
  44.6600000 198.6340000  11.5630000  43.4690000 200.3830000  12.4360000
  42.7520000 200.8430000  11.5940000  43.1010000 200.3010000  13.9310000
  42.4760000 201.2790000  14.1370000  42.2180000 199.5210000  14.1070000
  44.1940000 199.7220000  14.8270000  45.1240000 200.0080000  15.5070000
  44.7940000 199.1120000  14.0220000  43.6140000 199.1960000  16.1090000
  43.4150000 197.9890000  16.2530000  43.3010000 200.0820000  17.0570000
  42.3460000 200.7960000  17.0490000  43.5320000 199.9670000  18.2160000
  44.7060000 201.3070000  12.2180000  45.6440000 200.9480000  11.5060000
  44.6630000 202.5080000  12.8400000  43.5930000 202.9930000  12.9620000
  45.6640000 203.5820000  12.8250000  45.8530000 203.7520000  11.6570000
  45.0520000 204.8440000  13.4200000  44.1210000 205.3080000  12.8280000
  45.8250000 205.7560000  13.4060000  44.6000000 204.5920000  14.7420000
  44.0800000 205.5030000  15.2810000  46.9400000 203.2490000  13.6070000
  47.9890000 203.8540000  13.3670000  46.8330000 202.3300000  14.5740000
  45.7210000 202.1680000  14.9480000  47.9310000 201.8990000  15.4400000
  48.6760000 202.8170000  15.5920000  47.3600000 201.3970000  16.7850000
  46.5790000 200.5030000  16.7590000  48.2650000 200.8350000  17.3310000
  47.0160000 202.4540000  17.8650000  47.8600000 203.2920000  17.9830000
  45.7520000 203.2630000  17.5340000  45.6370000 204.1150000  18.3690000
  44.6220000 202.8830000  17.6190000  45.9210000 204.0100000  16.6190000
  46.8010000 201.7890000  19.1940000  46.1170000 202.3870000  19.9770000
  47.8280000 201.8480000  19.8040000  46.2640000 200.7270000  19.2520000
  48.8310000 200.8370000  14.7860000  49.8440000 200.4550000  15.3690000
  48.4610000 200.3870000  13.5690000  47.4040000 200.6500000  13.1280000
  49.1380000 199.3680000  12.7510000  49.0750000 198.4420000  13.4880000
  48.3490000 199.1190000  11.4690000  48.9860000 198.4560000  10.6930000
  47.2850000 198.6020000  11.3320000  48.1870000 200.3170000  10.7210000
  48.8090000 201.2430000  11.0850000  50.5710000 199.7230000  12.3800000
  51.4490000 198.8550000  12.4110000  50.7930000 200.9930000  11.9880000
  50.5000000 201.8010000  12.7990000  52.0930000 201.5170000  11.5730000
  52.4640000 200.5590000  10.9550000  51.9570000 202.6930000  10.5790000
  53.0720000 202.3450000  10.2620000  52.0910000 203.1290000   9.4740000
  50.7620000 203.5990000  10.8210000  50.9720000 204.0780000  11.8880000
  49.7000000 203.1340000  10.5270000  50.7950000 204.8130000   9.9230000
  51.7450000 205.5440000   9.8960000  50.7130000 204.5690000   8.7510000
  49.5870000 205.6250000  10.0660000  48.8390000 205.6180000   9.1380000
  49.3960000 206.5380000  11.0140000  50.3280000 206.7560000  11.9370000
  50.3120000 207.8530000  12.4050000  51.2220000 206.3140000  12.5890000
  48.2640000 207.2270000  11.0600000  47.1760000 207.0150000  10.6270000
  48.2030000 208.3880000  11.3010000  52.9920000 201.8420000  12.7770000
  53.3310000 202.9990000  13.0320000  53.3480000 200.7860000  13.5280000
  53.0220000 199.6550000  13.4400000  54.2340000 200.7970000  14.6900000
  54.9170000 201.7740000  14.6310000  53.4570000 200.7280000  16.0180000
  52.7530000 199.7620000  16.0540000  54.3830000 200.5780000  16.7450000
  52.6290000 201.9620000  16.3550000  53.2470000 202.9320000  16.0310000
  51.6440000 202.2060000  15.7280000  52.3210000 201.9840000  17.8390000
  51.3130000 202.6110000  18.0000000  51.9600000 200.9190000  18.2320000
  53.2020000 202.9060000  18.5660000  53.4880000 203.9430000  18.0600000
  53.3670000 202.9250000  19.8880000  52.7330000 202.0470000  20.6580000
  51.5670000 202.2030000  20.8590000  53.1100000 201.7510000  21.7430000
  54.1820000 203.8110000  20.4470000  53.6590000 204.6020000  21.1730000
  54.9830000 204.4840000  19.8930000  55.0990000 199.5670000  14.4960000
  54.7220000 198.4610000  14.8930000  56.2080000 199.7530000  13.7790000
  56.6320000 200.8280000  13.4970000  57.1530000 198.7040000  13.4080000
  56.4180000 197.9110000  12.9050000  58.0480000 199.2080000  12.2510000
  57.5790000 199.8950000  11.4130000  58.9500000 199.8310000  12.7210000
  58.6300000 198.1340000  11.3750000  59.8660000 197.5570000  11.6520000
  60.8370000 198.2070000  11.8660000  60.0740000 196.6720000  10.6890000
  61.0140000 196.2850000  10.0670000  59.0680000 196.6570000   9.8120000
  58.1460000 197.5950000  10.2300000  57.2240000 197.6920000   9.4920000
  58.0020000 198.2390000  14.5990000  58.1040000 198.9320000  15.6130000
  58.6330000 197.0680000  14.4410000  58.1900000 196.4360000  13.5430000
  59.5250000 196.4200000  15.4010000  58.8280000 196.4630000  16.3670000
  59.8650000 194.9610000  14.9440000  60.4390000 194.2050000  15.6490000
  58.5780000 194.1210000  14.7320000  57.5490000 194.4170000  15.2490000
  58.2770000 193.9860000  13.5830000  58.6910000 192.9780000  15.0540000
  60.7890000 194.9340000  13.6870000  60.2600000 195.1170000  12.6360000
  61.7580000 195.6100000  13.6220000  61.4090000 193.5470000  13.2960000
  62.5460000 193.5420000  12.9170000  60.9040000 193.0670000  12.3150000
  61.4300000 192.5660000  13.9760000  60.7840000 197.2710000  15.6890000
  60.9620000 198.3670000  15.1430000  61.9210000 197.1740000  16.3850000
  62.3960000 197.2310000  15.2900000  62.4720000 196.1070000  17.1600000
  61.8210000 195.1400000  16.9760000  61.9730000 196.9160000  18.3260000
  61.9850000 196.8350000  19.5200000  60.7760000 196.9310000  18.2340000
  62.1790000 198.4010000  17.9970000  63.0100000 198.8740000  16.9650000
  64.0150000 198.9490000  16.3280000  63.1440000 200.2500000  16.7370000
  63.8420000 200.8720000  16.0000000  62.4990000 201.2140000  17.4790000
  62.6430000 202.3860000  17.3490000  61.7140000 200.6760000  18.4890000
  61.4390000 201.5930000  19.1890000  61.5200000 199.3290000  18.7880000
  61.0000000 199.2550000  19.8480000  63.8880000 196.0560000  16.5240000
  64.4050000 197.0940000  16.1450000  64.6570000 194.9530000  16.3350000
  64.5810000 193.5150000  16.6510000  63.4990000 193.0270000  16.6960000
  64.6340000 192.6170000  15.8360000  65.7560000 193.7010000  17.6640000
  66.0030000 193.3050000  18.7650000  66.1440000 192.6280000  17.3270000
  66.3960000 195.0740000  17.2580000  66.2340000 196.2690000  17.3500000
  67.1900000 194.8600000  18.1200000  65.9640000 195.2740000  15.7740000
  65.7020000 195.8580000  14.7540000  66.7690000 194.1880000  15.0570000
  65.6450000 193.7010000  15.0110000  67.7330000 195.0860000  15.3580000
  68.0220000 194.2310000  16.1520000  69.1640000 195.1040000  15.0630000
  69.0960000 194.6430000  13.9570000  69.6310000 194.3290000  16.3610000
  70.2630000 193.5880000  15.6230000  70.4570000 195.0560000  15.9130000
  69.1700000 192.9720000  16.2760000  69.4500000 192.3000000  17.2170000
  68.8220000 196.3190000  15.8870000  67.6250000 196.5600000  15.8340000
  69.5370000 197.1330000  16.6300000  70.1830000 196.5080000  17.3560000
  68.5910000 198.0620000  17.2610000  67.5520000 198.6530000  17.2720000
  68.9820000 196.9580000  18.2990000  67.8390000 196.5520000  18.5360000
  70.0590000 197.2610000  18.7430000  68.7960000 197.0120000  19.7000000
  68.3040000 198.0320000  20.0740000  69.2620000 199.4100000  17.1750000
  70.2520000 200.0790000  16.8650000  69.8210000 198.2930000  16.7780000
  70.5230000 198.7080000  17.6800000  71.1500000 198.0610000  16.2320000
  71.7890000 199.0180000  16.5630000  71.2800000 198.0620000  14.7080000
  72.4400000 197.8790000  14.7920000  70.1950000 198.5660000  14.5140000
  70.7810000 196.8570000  13.9120000  69.6730000 196.7790000  13.4780000
  71.1960000 195.7350000  13.8240000  71.4060000 197.2220000  12.5760000
  70.6500000 197.6100000  11.7250000  71.8850000 196.3190000  11.9460000
  72.5060000 198.1800000  12.9370000  72.7110000 198.4560000  11.7780000
  73.5830000 197.6520000  13.0310000  71.9360000 199.3380000  13.6150000
  70.8400000 199.7740000  13.3390000  72.1870000 199.9190000  12.5820000
  71.8860000 200.0400000  14.5570000  71.8290000 196.7030000  16.4340000
  72.9490000 196.7920000  15.8800000  71.4420000 195.5040000  17.0740000
  70.2950000 194.9230000  17.8440000  70.6460000 193.7900000  18.0260000
  69.3000000 194.6030000  18.4130000  71.0370000 194.9000000  19.1790000
  70.4230000 195.2820000  20.0880000  70.9260000 193.8160000  19.7370000
  72.4460000 194.8110000  18.5720000  72.9650000 193.7230000  18.6240000
  72.6540000 195.0900000  19.7140000  72.4380000 194.4260000  17.0980000
  72.8650000 193.5050000  16.4610000  73.6720000 195.3530000  16.8710000
  72.5450000 195.7480000  16.9950000  73.9330000 196.6930000  16.7640000
  73.5530000 197.8720000  16.8710000  75.1150000 197.4900000  16.5620000
  75.5440000 198.3630000  17.2680000  75.9320000 198.3000000  15.5260000
  77.0290000 198.2540000  15.0780000  75.5820000 197.4990000  14.7120000
  75.9450000 199.8630000  15.6150000  76.6300000 200.3080000  16.4870000
  76.6260000 200.2780000  14.7100000  74.8490000 200.9580000  15.4870000
  75.3540000 202.0310000  15.6870000  74.2710000 200.7550000  16.5210000
  73.7640000 201.0180000  14.4010000  73.4700000 201.1360000  13.2380000
  74.7630000 201.4700000  13.8670000  73.0340000 202.2040000  14.8860000
  72.8470000 202.6490000  15.9850000  73.4400000 203.2320000  14.4160000
  71.9150000 202.3590000  14.4740000  75.1890000 196.9810000  17.9610000
  74.2270000 196.6920000  17.3070000  74.3300000 196.2180000  18.6740000
  73.8810000 197.3000000  18.9810000  74.6650000 195.9150000  19.9990000
  74.3170000 194.9870000  20.6540000  74.0040000 196.8920000  20.9710000
  74.1640000 196.5370000  22.1000000  74.7000000 198.1820000  21.3280000
  74.6830000 198.6230000  22.4460000  74.5990000 199.2320000  20.7540000
  75.8840000 198.0300000  21.2010000  72.6320000 197.3360000  20.4660000
  72.4480000 197.9240000  21.4970000  71.6430000 196.7160000  20.5890000
  72.3870000 198.2520000  19.7360000  75.8330000 194.8680000  20.0470000
  76.4040000 194.6930000  21.1170000  76.3200000 194.1140000  19.0270000
  76.0390000 194.0210000  17.8710000  77.4660000 193.1600000  19.1680000
  77.2530000 192.2740000  18.3910000  78.8470000 193.5960000  18.5420000
  79.3660000 192.6650000  18.0020000  79.5250000 193.8620000  19.4840000
  79.0850000 194.8280000  17.7070000  78.2690000 195.8610000  17.5110000
  78.0150000 196.4820000  18.4900000  78.9060000 196.7550000  16.6720000
  78.8820000 197.9400000  16.7410000  80.1780000 196.4050000  16.3450000
  81.1790000 197.0530000  15.5450000  81.2000000 198.2180000  15.3270000
  82.4080000 196.3620000  15.3780000  83.3670000 196.8850000  14.9170000
  82.5490000 195.0900000  16.0150000  83.6160000 194.5770000  15.9430000
  81.4930000 194.5380000  16.7920000  81.9400000 193.6690000  17.4670000
  80.3160000 195.1600000  16.9770000  77.3990000 192.0660000  20.2850000
  76.3700000 192.7080000  20.5030000  76.9810000 191.3170000  21.3430000
  78.0020000 190.7230000  21.5080000  75.7780000 191.5210000  22.1540000
  76.2700000 190.5700000  22.6720000  74.4050000 190.8740000  22.0380000
  73.5300000 190.7640000  22.8470000  74.1010000 191.3290000  20.9640000
  74.0420000 189.4070000  21.7990000  73.1700000 188.6500000  22.0610000
  74.0200000 189.2460000  20.6190000  74.9920000 188.6970000  22.7480000
  74.5990000 188.2930000  23.8470000  76.2530000 188.5660000  22.2980000
  77.0190000 188.0380000  23.0420000  76.6280000 188.1760000  21.2360000
  75.3060000 192.8800000  22.7760000  75.6310000 193.3240000  21.6820000
  75.0360000 192.1160000  23.8770000  75.1670000 191.0290000  24.3640000
  74.4810000 192.5890000  25.1220000  73.7310000 191.6980000  25.3900000
  75.8920000 192.8380000  25.6240000  76.0990000 191.9260000  26.3490000
  76.4340000 193.7330000  26.1780000  76.9830000 192.5950000  24.5380000
  78.1410000 192.8980000  24.8800000  76.7720000 192.1370000  23.3930000
  74.4070000 194.0930000  25.2950000  74.9920000 194.1080000  24.2020000
  73.7900000 193.6900000  26.4440000  73.4580000 192.7700000  27.1340000
  73.2720000 194.7020000  27.3670000  72.2100000 194.2010000  27.5770000
  74.2860000 195.0160000  28.4740000  73.6690000 195.4580000  29.3910000
  74.5420000 193.9350000  28.9290000  75.6080000 195.7330000  28.8920000
  76.4340000 195.2640000  28.1630000  75.9850000 195.4220000  29.9850000
  75.8580000 197.2670000  29.0250000  75.2480000 197.6410000  29.9870000
  76.9880000 197.4490000  29.3660000  75.4790000 198.0490000  27.7970000
  74.9870000 199.0260000  28.2570000  75.8350000 198.5070000  26.5950000
  77.0870000 197.9290000  26.7110000  77.9830000 198.4800000  27.2700000
  77.6130000 196.9790000  26.2220000  76.4180000 198.8420000  25.4470000
  75.5850000 199.4210000  24.8250000  77.4160000 199.3170000  24.9910000
  72.8170000 195.9860000  26.6560000  73.3200000 196.3060000  25.5690000
  71.8640000 196.7170000  27.3040000  72.1450000 197.0310000  28.4180000
  71.1560000 197.9630000  26.9230000  70.7920000 198.7680000  27.7190000
  72.0770000 198.9680000  26.2330000  72.5050000 198.7910000  25.1300000
  71.4410000 199.9580000  25.9780000  72.9410000 199.5440000  26.8190000
  69.8860000 197.7110000  26.0940000  68.8730000 198.3780000  26.3190000
  69.9320000 196.7160000  25.1770000  70.8360000 195.9630000  25.1030000
  68.8050000 196.3060000  24.3270000  68.2590000 197.3390000  24.0800000
  69.2760000 195.7850000  22.9360000  68.4830000 195.4260000  22.1360000
  69.7010000 196.8350000  22.5640000  70.2680000 194.6350000  22.8800000
  69.8280000 193.3160000  22.8220000  68.8000000 192.8100000  23.1380000
  70.7460000 192.2560000  22.7410000  70.2780000 191.1650000  22.7010000
  72.1060000 192.5150000  22.6950000  72.1540000 192.0480000  23.8070000
  72.5580000 193.8170000  22.7250000  73.6020000 194.3550000  22.7120000
  71.6390000 194.8770000  22.8010000  72.0310000 195.9270000  23.1870000
  67.8460000 195.3110000  25.0470000  67.0470000 194.6400000  24.3900000
  67.9070000 195.2520000  26.3990000  68.8960000 195.6730000  26.8740000
  67.0180000 194.4340000  27.2350000  66.7790000 193.3500000  26.7920000
  67.5130000 194.3620000  28.7010000  67.3190000 195.2950000  29.4120000
  66.7570000 193.6080000  29.2460000  68.8980000 193.7610000  28.9410000
  68.9450000 192.8900000  28.1660000  69.0530000 193.0800000  29.9070000
  69.9900000 194.7980000  29.1630000  70.9150000 194.0950000  29.4400000
  70.2980000 195.4700000  28.2490000  69.8790000 195.5050000  30.4430000
  70.1280000 194.9430000  31.4640000  69.3870000 196.7340000  30.5910000
  68.9420000 197.4130000  29.5380000  69.8350000 198.2030000  29.4700000
  68.1120000 198.2060000  29.8520000  69.3320000 197.2930000  31.7930000
  70.2920000 197.6490000  32.3970000  68.4210000 197.5060000  32.5270000
  65.6630000 195.1440000  27.2290000  64.6180000 194.4960000  27.1330000
  65.7060000 196.4950000  27.3250000  66.7120000 197.1190000  27.3680000
  64.5530000 197.3970000  27.3290000  63.7210000 197.0140000  28.0880000
  64.9610000 198.8090000  27.7550000  63.9820000 199.5020000  27.6660000
  65.7570000 199.4230000  27.1280000  65.4340000 198.9010000  29.2040000
  64.4320000 198.6590000  29.8120000  66.1740000 198.1690000  29.7710000
  65.6690000 200.3270000  29.6200000  66.5420000 201.0230000  29.0860000
  64.8960000 200.7910000  30.5940000  63.9640000 200.5460000  31.2920000
  65.2040000 201.8760000  30.9790000  63.8780000 197.4340000  25.9740000
  62.6770000 197.7030000  25.9020000  64.6490000 197.1540000  24.8970000
  65.7330000 197.6210000  24.8910000  64.1510000 197.0790000  23.5250000
  63.7260000 198.1610000  23.2570000  65.2840000 196.7470000  22.5440000
  66.0140000 197.6960000  22.5240000  65.9500000 195.7730000  22.6150000
  64.8380000 196.7040000  21.1130000  64.7910000 197.7510000  20.2450000
  65.0830000 198.8660000  20.5360000  64.3110000 197.3340000  19.0220000
  64.8830000 198.1710000  18.4050000  64.0410000 195.9910000  19.0810000
  63.5590000 195.1210000  18.0980000  64.6300000 194.6750000  18.2590000
  63.3650000 193.8060000  18.4570000  62.3260000 193.2290000  18.3460000
  63.6570000 193.3490000  19.7480000  63.5510000 192.1730000  19.7690000
  64.1530000 194.2060000  20.7180000  64.9860000 193.7660000  21.4320000
  64.3460000 195.5600000  20.3920000  63.0950000 195.9920000  23.4480000
  62.0430000 196.2130000  22.8510000  63.3910000 194.8190000  24.0420000
  64.4740000 194.5390000  24.4330000  62.4910000 193.6770000  24.0630000
  62.1570000 193.3100000  22.9830000  63.2050000 192.4230000  24.5290000
  63.7090000 192.6410000  25.5890000  62.6850000 191.4030000  24.8310000
  63.8930000 191.7530000  23.3890000  65.2110000 191.8490000  23.0600000
  66.0990000 191.8570000  23.8410000  65.4600000 191.1550000  21.8990000
  66.5660000 190.9760000  21.5080000  64.2830000 190.6190000  21.4360000
  64.0140000 189.8760000  20.2770000  64.8140000 189.8500000  19.4000000
  62.7140000 189.4840000  20.0640000  62.5920000 189.0560000  18.9690000
  61.6920000 189.8340000  20.9520000  60.5970000 189.6650000  20.5520000
  61.9500000 190.5890000  22.0850000  61.2480000 190.3930000  23.0170000
  63.2690000 190.9990000  22.3400000  61.2120000 193.9150000  24.8480000
  60.1880000 193.3150000  24.5100000  61.2520000 194.8000000  25.8660000
  62.2900000 194.8910000  26.4220000  60.0670000 195.1630000  26.6370000
  59.3690000 194.2380000  26.9190000  60.4430000 195.7850000  27.9760000
  61.0960000 196.7860000  27.9970000  59.4480000 196.0360000  28.5650000
  61.0600000 194.8420000  28.9920000  60.2960000 194.2750000  29.7110000
  61.6270000 193.9060000  28.5530000  61.6380000 195.6550000  30.1270000
  60.9520000 196.4770000  30.7550000  62.9280000 195.4800000  30.3880000
  63.4780000 194.4410000  30.5750000  63.3740000 196.2020000  31.2170000
  59.2440000 196.1630000  25.8130000  58.0250000 196.0090000  25.7260000
  59.9170000 197.1670000  25.1870000  60.7410000 197.5980000  25.8900000
  59.2890000 198.1720000  24.3220000  58.5210000 198.7100000  25.0560000
  60.3350000 199.1780000  23.8290000  61.0500000 199.4960000  24.7400000
  60.8900000 198.8010000  22.8390000  59.7750000 200.5590000  23.5090000
  59.2690000 200.9380000  24.5300000  58.9660000 200.5750000  22.6460000
  60.8770000 201.4870000  22.9880000  61.2220000 201.2380000  21.8730000
  61.9120000 201.3680000  23.5750000  60.5140000 202.9580000  23.0060000
  59.9010000 203.4970000  22.1460000  61.5790000 203.4190000  22.6850000
  60.5480000 203.5350000  24.3790000  60.2190000 203.0680000  25.4330000
  59.8340000 204.5000000  24.3430000  61.5840000 204.0400000  24.7190000
  58.6320000 197.4580000  23.1310000  57.5410000 197.8420000  22.7160000
  59.2860000 196.3870000  22.6280000  60.3660000 196.5150000  23.0640000
  58.8270000 195.5160000  21.5520000  58.6370000 196.1810000  20.5830000
  59.9020000 194.4540000  21.2420000  60.2570000 194.3770000  22.3530000
  60.9290000 194.4250000  20.6740000  59.4710000 193.3840000  20.2650000
  59.5710000 193.5850000  18.8910000  59.4520000 194.6790000  18.4830000
  59.1560000 192.6080000  17.9840000  59.9340000 192.3300000  17.1400000
  58.6440000 191.4060000  18.4500000  58.2270000 190.4410000  17.5650000
  59.0640000 190.1940000  16.7800000  58.5540000 191.1790000  19.8160000
  57.7970000 190.3790000  20.2440000  58.9820000 192.1600000  20.7130000
  58.9140000 191.8090000  21.8430000  57.5000000 194.8500000  21.9580000
  56.5390000 194.8870000  21.1770000  57.4510000 194.2390000  23.1720000
  58.4090000 194.0450000  23.8240000  56.2400000 193.5850000  23.6770000
  56.1810000 192.7320000  22.8500000  56.5080000 192.8550000  25.0080000
  56.8140000 193.4340000  25.9980000  57.3470000 192.0370000  24.8100000
  55.2770000 192.1280000  25.5760000  54.6590000 193.0780000  25.9710000
  54.6290000 191.3400000  25.0120000  55.5510000 191.3750000  26.8550000
  56.2850000 190.3820000  26.8840000  54.8980000 191.7780000  27.9260000
  54.1650000 191.7190000  28.8590000  55.5930000 192.6420000  28.3700000
  55.1400000 194.6190000  23.8580000  54.0060000 194.3940000  23.4270000
  55.4820000 195.7510000  24.4840000  56.3040000 195.5990000  25.3050000
  54.5470000 196.8270000  24.7600000  53.6580000 196.2620000  25.3260000
  55.2500000 197.9470000  25.5550000  55.7730000 198.9010000  25.0590000
  55.8510000 197.4210000  26.4320000  54.3040000 198.7470000  26.4480000
  53.2590000 198.2510000  26.3570000  53.8940000 199.8110000  26.1290000
  54.9750000 199.2570000  27.7370000  55.4470000 198.4860000  28.4800000
  55.7290000 200.1130000  27.3440000  53.9990000 199.9510000  28.6730000
  53.0980000 199.2210000  28.9680000  53.4630000 200.9470000  28.2930000
  54.6580000 200.4020000  29.9310000  55.0060000 199.4960000  30.6290000
  55.6110000 201.1260000  29.9670000  53.8270000 200.9530000  30.5960000
  53.9170000 197.3380000  23.4560000  52.6890000 197.4640000  23.3720000
  54.7490000 197.5320000  22.4170000  55.8160000 197.6250000  22.8940000
  54.3170000 198.0490000  21.1210000  53.5110000 198.8910000  21.3620000
  55.5170000 198.6600000  20.3740000  56.2470000 197.9960000  19.7040000
  56.2360000 199.1260000  21.1970000  55.1810000 199.7900000  19.4090000
  54.3460000 200.6170000  19.5310000  54.7850000 199.1250000  18.5260000
  56.3520000 200.7480000  19.2260000  56.2460000 201.4190000  18.2390000
  57.3580000 200.1670000  18.9730000  56.4970000 201.6480000  20.3730000
  55.9990000 201.4960000  21.4410000  57.4420000 202.5750000  20.4930000
  58.3540000 202.7300000  19.5410000  58.4060000 202.6080000  18.3570000
  59.1490000 203.6120000  19.6330000  57.4870000 203.3480000  21.5690000
  57.8400000 203.4310000  22.7010000  56.6620000 204.2010000  21.6130000
  53.5790000 197.0170000  20.2640000  52.4230000 197.2480000  19.9120000
  54.2330000 195.8830000  19.9370000  55.3960000 195.9750000  19.8400000
  53.6600000 194.8410000  19.0790000  53.4080000 195.3920000  18.0480000
  54.6340000 193.6640000  18.8740000  55.6660000 194.1200000  18.4690000
  54.8110000 193.1260000  19.9210000  54.2640000 192.7860000  17.6830000
  54.3300000 193.4410000  16.6850000  53.1100000 192.4990000  17.6290000
  55.1820000 191.5870000  17.5650000  55.0110000 190.8920000  18.5140000
  56.2730000 192.0260000  17.5810000  54.9800000 190.7500000  16.3130000
  53.8470000 190.5000000  16.5470000  55.3080000 189.6610000  15.9900000
  55.7300000 191.2800000  15.1410000  55.2250000 192.2790000  14.7170000
  56.9200000 191.3590000  15.1390000  55.6310000 190.6770000  14.1040000
  52.2940000 194.3400000  19.5450000  51.3720000 194.2480000  18.7290000
  52.1630000 194.0560000  20.8520000  52.9980000 194.4660000  21.5800000
  50.9640000 193.4830000  21.4490000  50.1240000 193.4400000  20.6150000
  51.3480000 192.2980000  22.3460000  50.4990000 191.6110000  22.7610000
  51.9160000 192.9480000  23.1580000  52.2140000 191.2990000  21.6200000
  51.6890000 190.5090000  20.6040000  50.5670000 190.1420000  20.5820000
  52.4910000 189.5880000  19.9270000  52.2410000 189.2820000  18.8100000
  53.8320000 189.4800000  20.2400000  54.5430000 188.9150000  19.4970000
  54.3770000 190.2800000  21.2220000  55.5170000 190.2160000  21.5380000
  53.5680000 191.1900000  21.9100000  54.0560000 191.6890000  22.8580000
  50.0960000 194.4850000  22.1870000  49.2880000 194.0860000  23.0250000
  50.1970000 195.7730000  21.8270000  51.1390000 196.2800000  21.3320000
  49.3940000 196.8230000  22.4540000  49.6430000 196.8450000  23.6210000
  49.7070000 198.2130000  21.8600000  49.4670000 198.3350000  20.7010000
  50.7870000 198.6790000  22.0580000  48.9020000 199.3080000  22.4870000
  49.2190000 199.8140000  23.7430000  50.0470000 199.7850000  24.5940000
  48.2920000 200.7230000  24.0060000  48.1370000 201.4900000  24.9000000
  47.4070000 200.8230000  23.0100000  47.7830000 199.9210000  22.0390000
  47.1780000 199.5870000  21.0880000  47.9110000 196.5240000  22.3280000
  47.1710000 196.6930000  23.2940000  47.4930000 196.0400000  21.1540000
  48.1880000 196.2060000  20.2080000  46.1070000 195.7210000  20.8600000
  45.4390000 196.6780000  21.1100000  45.9000000 195.6440000  19.3560000
  46.8220000 195.5480000  18.6100000  45.2040000 194.7670000  18.9890000
  45.7920000 197.2650000  18.5590000  46.2060000 198.3290000  18.2800000
  45.5590000 194.4670000  21.5750000  44.4170000 194.0750000  21.3250000
  46.3380000 193.8800000  22.5060000  47.3650000 194.3870000  22.7670000
  45.9170000 192.7640000  23.3510000  45.4950000 191.9170000  22.6360000
  47.0920000 192.2800000  24.1670000  48.1740000 192.7440000  24.0250000
  47.3670000 191.1330000  24.2370000  46.8090000 192.5750000  25.2900000
  44.8480000 193.3150000  24.2900000  44.0580000 192.5610000  24.8550000
  44.8360000 194.6570000  24.4440000  45.8910000 195.0830000  24.7720000
  43.9180000 195.3900000  25.2870000  43.8410000 194.9430000  26.3920000
  44.3790000 196.8390000  25.4540000  43.5940000 197.4460000  26.1250000
  45.3550000 196.9600000  26.1380000  44.4000000 197.5910000  24.2500000
  44.4740000 198.7600000  24.4240000  42.5000000 195.3010000  24.7420000
  41.5390000 195.5020000  25.4960000  42.3810000 194.9940000  23.4290000
  43.1250000 195.7590000  22.9190000  41.1280000 194.8330000  22.7020000
  40.2130000 195.3690000  23.2570000  41.3410000 195.0420000  21.2000000
  40.2910000 194.7780000  20.6830000  42.1130000 194.2430000  20.7940000
  41.6510000 196.4420000  20.7010000  42.5830000 197.0700000  21.0910000
  41.8160000 196.4270000  19.2090000  40.8850000 196.0000000  18.5820000
  42.8530000 196.0490000  18.7680000  41.8190000 197.5360000  18.7550000
  40.5540000 197.3770000  21.0050000  39.9110000 197.8180000  20.0910000
  39.6300000 197.0640000  21.7030000  40.8400000 198.4160000  21.5420000
  40.6150000 193.4400000  22.9050000  39.4380000 193.1820000  22.6510000
  41.5080000 192.5350000  23.3400000  42.5500000 192.9380000  23.6920000
  41.2120000 191.1220000  23.5440000  40.1220000 190.8670000  23.1280000
  42.2610000 190.2630000  22.8430000  41.8330000 189.1740000  22.6350000
  42.6530000 190.7950000  21.4840000  42.0350000 190.1180000  20.7060000
  43.7540000 190.5430000  21.1160000  42.2590000 191.8980000  21.3070000
  43.4030000 190.1820000  23.6790000  43.3330000 190.7460000  24.7030000
  41.0750000 190.7450000  25.0220000  41.0810000 191.6220000  25.8900000
  40.9710000 189.4290000  25.2950000  40.4710000 188.7520000  24.4580000
  40.8130000 188.8460000  26.6270000  40.4590000 189.5900000  27.4920000
  39.6780000 187.8220000  26.6260000  39.3430000 187.3540000  27.6740000
  38.6010000 188.2130000  26.2740000  39.9320000 186.7690000  25.7100000
  40.4430000 185.8330000  26.2020000  42.1260000 188.2460000  27.1660000
  42.1140000 187.5510000  28.1870000  43.2600000 188.5680000  26.5050000
  43.2630000 189.7380000  26.5990000  44.5890000 188.1090000  26.8900000
  44.3410000 187.9860000  28.0430000  45.0610000 187.0070000  25.9590000
  46.1520000 186.8310000  26.4000000  45.3660000 186.8040000  24.8280000
  44.2110000 185.7710000  26.0070000  43.5740000 185.1760000  24.9560000
  43.3490000 185.1900000  23.7840000  42.8960000 184.0560000  25.3830000
  42.4650000 183.2210000  24.6540000  43.0730000 183.9160000  26.7360000
  42.5770000 182.9510000  27.6220000  42.0840000 181.9330000  27.2650000
  42.9250000 183.0720000  28.9530000  42.5380000 182.2010000  29.6660000
  43.7110000 184.1350000  29.4100000  43.7650000 184.0870000  30.5980000
  44.2120000 185.0840000  28.5340000  44.8470000 185.6810000  29.3360000
  43.8800000 184.9940000  27.1690000  45.6350000 189.2360000  27.0060000
  45.5520000 190.2250000  26.2720000  46.6100000 189.1170000  27.9470000
  46.8500000 188.0060000  28.8870000  45.8350000 188.0980000  29.5230000
  46.9840000 186.8250000  28.8500000  47.7130000 188.6150000  29.9090000
  47.1830000 188.5540000  30.9820000  48.6400000 187.8940000  30.0860000
  48.1150000 189.9870000  29.5250000  48.2810000 190.2160000  30.6980000
  48.2440000 191.1850000  29.5250000  47.6290000 190.1730000  28.1010000
  46.8700000 191.0940000  28.0910000  48.8050000 190.0720000  27.1270000
  49.1040000 188.9650000  26.6200000  49.5250000 191.2060000  26.8930000
  49.2840000 192.5750000  27.3780000  48.1980000 193.0530000  27.5480000
  49.7390000 192.8130000  28.4590000  50.0160000 193.4140000  26.3900000
  49.5230000 194.0280000  25.4990000  50.2940000 194.3880000  27.0380000
  51.1980000 192.6080000  26.0090000  51.8920000 192.8200000  26.9640000
  51.9730000 192.9450000  25.1790000  50.6490000 191.1870000  25.9330000
  50.0860000 190.9610000  24.9120000  51.7190000 190.1480000  26.2230000
  52.3230000 189.6190000  25.2930000  51.9230000 189.8250000  27.5110000
  51.6930000 190.6260000  28.3550000  52.8960000 188.8280000  27.9200000
  53.9890000 188.9200000  27.4570000  53.2220000 188.9440000  29.3950000
  53.8270000 189.7900000  29.9890000  54.0160000 188.0850000  29.6550000
  52.0600000 188.8230000  30.3340000  51.4830000 189.8320000  31.0380000
  51.8180000 190.9220000  31.3800000  50.5410000 189.3290000  31.9020000
  50.2320000 189.8990000  32.8990000  50.5190000 187.9630000  31.7990000
  49.7390000 187.0150000  32.4740000  49.1940000 187.2260000  33.5100000
  49.9490000 185.6940000  32.1640000  49.5020000 184.8850000  32.9110000
  50.9040000 185.3030000  31.2120000  51.2280000 184.1800000  31.4290000
  51.6820000 186.2380000  30.5510000  52.8090000 185.8680000  30.6250000
  51.4700000 187.6030000  30.8200000  52.4880000 187.4260000  27.5480000
  53.3640000 186.5570000  27.4460000  51.1680000 187.1950000  27.3370000
  50.4620000 187.7240000  28.1270000  50.7000000 185.8860000  26.9080000
  51.3910000 185.1780000  27.5640000  49.2190000 185.6380000  27.2130000
  48.6270000 186.5060000  26.7090000  49.1320000 185.3680000  28.3680000
  48.6850000 184.3270000  26.6010000  48.9270000 184.0930000  25.4580000
  49.2550000 183.1100000  27.2690000  50.4000000 183.0940000  27.5640000
  49.0200000 182.0360000  26.7920000  48.8280000 182.8440000  28.3620000
  47.2330000 184.2550000  26.6730000  46.6890000 184.2630000  27.7360000
  46.8930000 183.1290000  26.4020000  46.7610000 184.7230000  25.6750000
  50.9900000 185.7150000  25.4120000  51.4990000 184.6760000  24.9970000
  50.6840000 186.7500000  24.6130000  50.0750000 187.6510000  25.0650000
  50.9100000 186.7780000  23.1740000  50.4110000 185.7590000  22.8140000
  50.3740000 188.0810000  22.5830000  50.8060000 188.0300000  21.4790000
  50.8470000 189.0220000  23.1140000  48.8630000 188.1130000  22.5550000
  48.1440000 187.2500000  21.7300000  48.5930000 186.1830000  21.5480000
  46.7540000 187.2340000  21.7350000  45.9830000 186.4630000  21.2540000
  46.0570000 188.1030000  22.5590000  44.6830000 188.0770000  22.5350000
  44.1420000 187.8570000  23.5540000  46.7470000 188.9490000  23.4150000
  45.9740000 189.5250000  24.0960000  48.1460000 188.9490000  23.4100000
  48.6030000 189.3260000  24.4230000  52.3600000 186.5440000  22.7930000
  52.6110000 185.8790000  21.7820000  53.3140000 187.0280000  23.6380000
  53.0110000 187.7200000  24.5450000  54.7590000 186.8430000  23.4620000
  55.0380000 187.4810000  22.5030000  55.5370000 187.5340000  24.5740000
  55.4300000 187.1480000  25.7020000  56.7050000 187.4240000  24.4680000
  55.1600000 188.8890000  24.7170000  56.0810000 189.6080000  24.7380000
  55.1140000 185.3580000  23.4790000  56.0550000 184.9630000  22.7930000
  54.3640000 184.5310000  24.2590000  53.9660000 185.1430000  25.1860000
  54.5930000 183.0870000  24.3630000  55.7590000 182.8790000  24.4640000
  53.8040000 182.4590000  25.5250000  52.7770000 182.3400000  25.0030000
  53.9080000 181.3650000  25.9480000  54.0000000 183.0760000  26.9080000
  53.9220000 184.2330000  27.1530000  52.9890000 182.5400000  27.8840000
  52.0190000 181.9050000  27.6060000  52.8010000 183.2440000  28.8350000
  53.4780000 181.6500000  28.5330000  55.4060000 182.8440000  27.4250000
  55.6390000 183.4110000  28.4560000  55.7320000 181.7650000  27.8300000
  56.3120000 183.3280000  26.8230000  54.2660000 182.4060000  23.0430000
  54.6310000 181.2380000  22.8520000  53.6350000 183.1520000  22.1030000
  52.9000000 184.0380000  22.3270000  53.3150000 182.6420000  20.7780000
  53.7730000 181.5710000  20.5650000  51.8110000 182.4890000  20.5940000
  51.3830000 182.0840000  19.5490000  51.1380000 183.4650000  20.6740000
  51.1830000 181.5240000  21.5730000  50.7580000 181.9520000  22.8260000
  50.5730000 183.0490000  23.2060000  50.1490000 181.0780000  23.7250000
  49.6190000 181.3970000  24.7280000  49.9550000 179.7550000  23.3730000
  49.3580000 178.9210000  24.2860000  49.7730000 179.0420000  25.3860000
  50.3660000 179.3040000  22.1260000  49.9300000 178.2490000  21.8030000
  50.9730000 180.1910000  21.2330000  51.1040000 179.5620000  20.2460000
  53.9390000 183.4790000  19.6720000  53.6360000 183.2500000  18.5020000
  54.8390000 184.4180000  20.0240000  55.5810000 184.1150000  20.8840000
  55.5080000 185.2600000  19.0310000  54.6850000 185.4450000  18.1860000
  55.9280000 186.6230000  19.6100000  54.7980000 186.8780000  19.8830000
  56.5160000 186.8710000  20.6100000  56.5380000 187.5860000  18.5950000
  55.9150000 187.8080000  17.5280000  57.5980000 188.1640000  18.8940000
  56.7020000 184.5430000  18.4950000  57.5450000 184.1290000  19.2830000
  56.8060000 184.4000000  17.1660000  55.9620000 184.7980000  16.4300000
  57.9620000 183.7210000  16.5950000  58.0260000 182.5630000  16.8660000
  57.8050000 183.5410000  15.0980000  58.5660000 183.0690000  14.3330000
  56.8390000 182.8530000  14.9160000  57.4060000 184.5250000  14.5240000
  59.2620000 184.4540000  16.9340000  60.1470000 183.8170000  17.4920000
  59.3440000 185.7920000  16.7060000  58.4910000 186.3660000  16.1210000
  60.5640000 186.5620000  17.0170000  61.3140000 186.0260000  16.2580000
  60.4680000 188.0650000  16.6630000  60.1850000 188.6380000  17.6460000
  61.6090000 188.4260000  16.5830000  60.0490000 188.3970000  15.2340000
  60.5330000 189.4440000  15.0400000  58.9730000 188.3700000  14.8480000
  60.7770000 187.7220000  14.0790000  61.9700000 187.3620000  14.2270000
  60.1470000 187.5740000  13.0060000  61.0220000 186.3940000  18.4530000
  62.2160000 186.1980000  18.6850000  60.0750000 186.4280000  19.4030000
  58.9830000 186.6460000  19.0230000  60.3240000 186.2870000  20.8370000
  61.1960000 187.0160000  21.1890000  59.0440000 186.6350000  21.6130000
  58.1420000 185.8800000  21.4800000  59.1490000 186.3470000  23.1090000
  58.6430000 187.0330000  23.9400000  60.2370000 186.5580000  23.5710000
  58.8930000 185.2700000  23.5620000  58.7580000 188.0180000  21.4050000
  58.8030000 188.6950000  22.3750000  60.9140000 184.9040000  21.1660000
  62.0160000 184.8180000  21.7240000  60.1760000 183.8390000  20.8050000
  59.0600000 184.0810000  20.5240000  60.5380000 182.4410000  21.0260000
  60.7670000 182.3780000  22.1870000  59.4750000 181.5110000  20.4070000
  60.0390000 180.4930000  20.6350000  59.4070000 181.6970000  19.2330000
  58.0680000 181.5210000  20.9840000  57.4670000 182.5230000  21.2160000
  57.1320000 180.7630000  20.0900000  57.1640000 180.1390000  19.0810000
  57.3530000 179.7780000  20.7440000  56.7010000 181.7420000  19.5880000
  58.0210000 180.9520000  22.3910000  58.7610000 181.7320000  22.9020000
  56.9810000 181.0830000  22.9620000  58.3500000 179.9000000  22.8470000
  61.9140000 182.1230000  20.4250000  62.6390000 181.3050000  20.9790000
  62.2600000 182.7630000  19.2920000  61.5850000 183.6520000  18.9170000
  63.5470000 182.5960000  18.6400000  63.6470000 181.4240000  18.5110000
  63.5500000 183.2160000  17.2540000  62.8660000 184.1750000  17.1390000
  64.6050000 183.6270000  16.9810000  63.0530000 182.2720000  16.2300000
  63.5420000 181.2200000  16.0010000  61.8940000 182.2850000  15.9600000
  63.1870000 182.9270000  14.5730000  64.9580000 183.2290000  14.4740000
  65.6320000 182.4680000  15.0730000  65.2460000 183.0240000  13.3360000
  64.7510000 184.4060000  14.4310000  64.6280000 183.1870000  19.5060000
  65.6100000 182.5060000  19.7820000  64.4200000 184.4060000  20.0170000
  63.9150000 185.2500000  19.3700000  65.4040000 185.0050000  20.9040000
  66.4310000 185.0630000  20.3170000  65.0800000 186.4620000  21.2330000
  64.5400000 186.4900000  22.2990000  64.3220000 187.0930000  20.5660000
  66.3290000 187.3280000  21.2600000  65.9770000 188.0700000  22.1130000
  67.4060000 187.2330000  21.7510000  66.9590000 187.6120000  19.9050000
  66.2170000 187.7050000  18.8970000  68.2030000 187.7580000  19.8570000
  65.6080000 184.1850000  22.1730000  66.7400000 184.1140000  22.6470000
  64.5370000 183.5430000  22.6970000  63.6350000 184.2970000  22.8210000
  64.6000000 182.7040000  23.8970000  65.2490000 183.2600000  24.7240000
  63.1980000 182.3110000  24.3620000  62.5380000 181.8160000  23.5170000
  63.4530000 181.6100000  25.2920000  62.4860000 183.3810000  25.1610000
  62.6250000 183.7770000  26.2740000  63.0190000 184.3930000  24.8510000
  61.0290000 183.0270000  25.3920000  60.4860000 183.8550000  26.0780000
  60.6030000 183.3130000  24.3290000  60.8280000 181.9910000  26.4080000
  61.4950000 181.9250000  27.3910000  59.6910000 181.3200000  26.5710000
  58.6470000 181.5650000  25.7890000  58.4790000 182.3650000  24.9580000
  57.6700000 181.0790000  26.2590000  59.5870000 180.4050000  27.5230000
  58.8040000 180.4130000  28.4210000  60.3400000 179.5750000  27.9120000
  65.4660000 181.4580000  23.6600000  66.1520000 180.9970000  24.5830000
  65.4350000 180.9300000  22.4100000  64.5600000 181.2990000  21.7130000
  66.2210000 179.7820000  21.9450000  66.4440000 179.0880000  22.8880000
  65.6000000 179.0890000  20.6970000  65.5120000 180.0080000  19.9490000
  66.4910000 177.9690000  20.1690000  67.3280000 177.7730000  20.9950000
  67.1480000 178.2410000  19.2180000  65.8050000 177.0180000  19.9600000
  64.2160000 178.5520000  21.0030000  64.5620000 178.0890000  22.0520000
  63.9340000 178.5180000  19.8530000  63.1020000 178.1420000  21.1430000
  67.6640000 180.2680000  21.7160000  68.5560000 179.7070000  22.3390000
  67.8840000 181.3370000  20.8820000  67.1320000 182.2380000  20.9920000
  69.1950000 181.9670000  20.5910000  69.8490000 181.3400000  19.8350000
  69.0380000 183.3030000  19.8490000  70.1540000 183.7300000  19.8730000
  68.5440000 184.1890000  20.4760000  68.6020000 183.1820000  18.4000000
  67.5670000 182.6810000  18.1490000  69.6350000 182.8300000  17.9140000
  68.3880000 184.5630000  17.7700000  67.5200000 185.2750000  18.1610000
  69.3610000 185.2460000  17.9140000  67.9880000 184.4810000  16.3170000
  68.7880000 183.9860000  15.5930000  66.8890000 184.0890000  16.0750000
  67.9130000 185.8230000  15.6800000  66.8800000 186.4050000  15.8680000
  68.6390000 186.7550000  15.8890000  67.9370000 185.8360000  14.4790000
  69.9890000 182.2210000  21.8720000  71.2220000 182.2160000  21.8400000
  69.2730000 182.4310000  22.9980000  68.1230000 182.6740000  23.0290000
  69.8260000 182.6410000  24.3310000  70.6000000 183.5400000  24.1980000
  68.6970000 182.9770000  25.3200000  68.0450000 182.0520000  25.6940000
  68.1980000 183.9520000  24.8560000  69.1540000 183.5330000  26.6640000
  69.3260000 182.7510000  27.5540000  70.2400000 184.0310000  26.6560000
  68.2770000 184.6760000  27.1700000  68.3560000 185.7030000  26.5690000
  68.7460000 184.9770000  28.2300000  66.9020000 184.2620000  27.4710000
  66.7700000 183.1440000  27.8490000  65.9490000 185.0750000  27.9240000
  66.2070000 186.3600000  28.1370000  65.5940000 187.3000000  27.7410000
  66.8410000 186.7870000  29.0440000  64.7310000 184.6100000  28.1680000
  64.4850000 183.6560000  28.8350000  63.7940000 185.3190000  28.3590000
  70.6550000 181.4030000  24.7600000  71.7520000 181.5840000  25.2920000
  70.1740000 180.1620000  24.4630000  69.0580000 180.0220000  24.8430000
  70.9010000 178.9090000  24.7530000  71.3830000 179.1600000  25.8110000
  69.9600000 177.7420000  25.1140000  69.2850000 178.1240000  26.0310000
  69.2530000 177.3640000  24.2470000  70.6840000 176.5070000  25.6930000
  69.8730000 175.6790000  25.9590000  71.3290000 176.0990000  24.7800000
  71.4710000 176.7400000  26.9830000  71.0270000 177.4510000  27.8930000
  72.6290000 176.0870000  27.1260000  72.9160000 175.8420000  28.2530000
  73.7130000 176.0030000  26.6620000  71.8860000 178.5250000  23.6310000
  72.9190000 177.9340000  23.9210000  71.5980000 178.9080000  22.3750000
  70.7850000 179.7250000  22.1210000  72.4740000 178.6430000  21.2160000
  72.8000000 177.4980000  21.2270000  71.7730000 178.9260000  19.8540000
  72.6160000 178.5130000  19.1120000  71.8570000 180.0860000  19.6040000
  70.4360000 178.2140000  19.5340000  69.5800000 178.4890000  20.3060000
  70.0030000 178.5160000  18.1360000  70.9860000 178.6050000  17.4530000
  69.4700000 177.7540000  17.3980000  69.4300000 179.5430000  18.0280000
  70.5320000 176.7050000  19.6990000  71.5620000 176.3140000  19.2320000
  70.4010000 176.3620000  20.8310000  69.8210000 175.9060000  19.1760000
  73.8200000 179.3850000  21.2990000  74.7960000 178.9470000  20.6790000
  73.8590000 180.5150000  22.0540000  72.9800000 181.1640000  22.5030000
  75.0710000 181.3000000  22.3130000  75.7870000 181.2650000  21.3670000
  74.7830000 182.7980000  22.4080000  73.8670000 183.4270000  22.8100000
  75.6060000 183.1510000  23.1870000  74.8330000 183.5120000  21.0850000
  76.0340000 183.9630000  20.5490000  75.7160000 184.5670000  19.4110000
  76.4070000 185.5210000  19.2480000  74.3990000 184.5390000  19.1880000
  73.8770000 185.5460000  18.8350000  73.8230000 183.8750000  20.2530000
  72.7230000 184.2210000  20.5240000  75.8270000 180.7500000  23.5450000
  77.0360000 180.9700000  23.6590000  75.1290000 179.9690000  24.4150000
  74.2160000 180.6520000  24.7300000  75.7140000 179.2630000  25.5630000
  76.5810000 179.9200000  26.0570000  74.6330000 178.8520000  26.5690000
  75.2380000 178.2680000  27.4210000  73.9010000 178.1270000  26.0160000
  74.0100000 180.0180000  27.3090000  74.7100000 180.9850000  27.3810000
  72.9430000 180.5310000  27.2100000  73.8160000 179.7700000  28.7920000
  74.8260000 179.8040000  29.5320000  72.6560000 179.5740000  29.2220000
  76.5130000 178.0120000  25.0900000  77.3440000 177.4920000  25.8360000
  76.2400000 177.5300000  23.8600000  75.2530000 177.7990000  23.2680000
  76.9050000 176.3770000  23.2440000  77.6010000 175.9100000  24.0890000
  75.8960000 175.4210000  22.5850000  75.1730000 175.9970000  21.8140000
  76.3670000 174.4440000  22.1240000  74.8570000 174.8260000  23.4970000
  74.9920000 174.5170000  24.8240000  75.7850000 174.7450000  25.6780000
  73.8370000 173.9320000  25.2950000  73.7140000 173.5340000  26.4020000
  72.9480000 173.8010000  24.2550000  71.6560000 173.2510000  24.2220000
  71.1910000 172.6050000  25.1010000  70.9920000 173.2540000  23.0080000
  69.9110000 172.7980000  23.1430000  71.5780000 173.7880000  21.8510000
  70.9150000 173.6270000  20.8860000  72.8570000 174.3290000  21.8800000
  73.1440000 174.8460000  20.8550000  73.5660000 174.3410000  23.1010000
  77.9170000 176.8360000  22.2010000  78.9710000 176.2110000  22.0520000
  77.5800000 177.9100000  21.4550000  76.9220000 178.8020000  21.8550000
  78.4630000 178.4930000  20.4550000  79.3750000 177.7530000  20.2480000
  77.8460000 178.4610000  19.0550000  76.9730000 177.7080000  18.7410000
  77.2830000 179.4710000  18.9650000  78.8700000 178.4200000  17.9300000
  80.0490000 178.7820000  18.1780000  78.5060000 177.9870000  16.8120000
  78.8530000 179.8950000  20.8990000  78.1520000 180.8770000  20.6380000
  79.9620000 179.9480000  21.6410000  80.7110000 179.0490000  21.4590000
  80.5720000 181.1300000  22.2440000  79.7640000 181.7700000  22.8450000
  81.7060000 180.7180000  23.2090000  82.2110000 181.7520000  23.5470000
  82.7210000 180.1930000  22.8590000  81.2960000 179.7580000  24.3300000
  80.9880000 180.7450000  24.9270000  81.5930000 179.3250000  25.3970000
  81.1130000 178.2830000  23.9890000  81.8440000 177.7690000  23.1100000
  80.2570000 177.6310000  24.6320000  81.0880000 182.0870000  21.1660000
  80.9990000 183.3040000  21.3410000  81.6060000 181.5270000  20.0460000
  82.0180000 180.4160000  20.0080000  82.1250000 182.2530000  18.8790000
  82.2700000 183.4240000  19.0490000  83.4390000 181.6030000  18.3720000
  83.8540000 182.0870000  17.3690000  83.4010000 180.4360000  18.0980000
  84.6970000 181.8910000  19.1750000  85.2900000 180.9950000  19.7980000
  85.1890000 183.1260000  19.1050000  86.2400000 183.2640000  18.5680000
  84.8350000 184.2010000  19.4610000  81.0700000 182.3450000  17.7320000
  81.4530000 182.4910000  16.5670000  79.7510000 182.2790000  18.0610000
  79.5380000 183.0990000  18.8960000  78.6740000 182.3580000  17.0680000
  79.0470000 181.5680000  16.2510000  77.3550000 181.7440000  17.5940000
  78.0440000 181.2460000  18.4150000  76.6310000 182.3020000  18.3500000
  76.2520000 181.4630000  16.5540000  76.7620000 181.1450000  15.5230000
  75.5020000 180.2320000  16.8910000  74.9960000 179.7950000  15.9080000
  76.1280000 179.2460000  17.1380000  74.6170000 180.1580000  17.6860000
  75.2790000 182.6130000  16.4240000  74.2970000 182.5250000  17.0940000
  74.9950000 182.6690000  15.2690000  75.5660000 183.7380000  16.6780000
  78.4260000 183.7850000  16.5810000  78.2680000 184.7100000  17.3860000
  78.3410000 183.9270000  15.2470000  78.7550000 183.0690000  14.5420000
  78.0030000 185.1480000  14.5220000  77.7670000 185.9790000  15.3390000
  78.9700000 185.3650000  13.3470000  78.3930000 185.8370000  12.4280000
  79.5980000 184.5510000  12.7330000  79.9790000 185.8690000  14.4040000
  80.6650000 184.9220000  14.7190000  79.8290000 186.4620000  15.4320000
  81.1530000 186.7800000  14.0680000  82.0360000 186.2230000  13.5040000
  81.7650000 187.2610000  14.9810000  80.7270000 187.9880000  13.2170000
  81.5170000 188.8070000  12.8770000  80.6600000 187.4240000  12.1840000
  79.7500000 188.9560000  13.7740000  78.7440000 188.6950000  14.3590000
  80.2720000 189.6750000  14.5770000  79.3460000 189.7490000  12.9700000
  76.5620000 184.9410000  14.0270000  76.2640000 183.9060000  13.4170000
  75.6620000 185.8970000  14.3320000  75.8870000 186.8710000  14.9750000
  74.2370000 185.8130000  13.9930000  73.7290000 184.8140000  14.3840000
  73.4600000 186.9810000  14.6060000  73.8920000 187.8910000  15.2440000
  72.8950000 187.6590000  13.7970000  72.4260000 186.5180000  15.6160000
  72.8180000 185.8640000  16.6150000  71.2230000 186.8050000  15.4080000
  73.9270000 185.6850000  12.4930000  72.8180000 185.2710000  12.1380000
  74.9180000 185.9930000  11.6310000  75.7280000 186.6680000  12.1570000
  74.8560000 185.9150000  10.1640000  73.8890000 186.4800000   9.7470000
  76.1500000 186.4780000   9.5110000  76.8350000 185.6890000   8.9390000
  75.7760000 187.0780000   8.5430000  76.9920000 187.4350000  10.3560000
  77.8410000 187.3830000  11.1900000  77.7020000 187.7830000   9.4650000
  76.3370000 188.7320000  10.7970000  76.1980000 189.6470000   9.9530000
  75.9930000 188.8440000  11.9970000  74.6300000 184.4600000   9.6990000
  73.9000000 184.2330000   8.7290000  75.2600000 183.4870000  10.4080000
  76.4100000 183.7480000  10.5220000  75.1850000 182.0440000  10.1440000
  75.3760000 181.7730000   8.9940000  76.1910000 181.2910000  11.0130000
  76.0570000 180.1270000  10.7750000  77.3200000 181.4550000  10.6600000
  75.9070000 181.4280000  12.3970000  76.8010000 181.7770000  13.0020000
  73.7770000 181.4920000  10.3810000  73.2840000 180.7000000   9.5690000
  73.1400000 181.9210000  11.5020000  73.7280000 182.7270000  12.1340000
  71.8010000 181.5210000  11.9330000  72.0470000 180.3750000  11.7350000
  71.4870000 182.0740000  13.3260000  70.3060000 182.0580000  13.4470000
  71.7170000 183.2220000  13.2830000  72.1090000 181.3530000  14.5090000
  73.2810000 181.3250000  14.3110000  71.6420000 181.9850000  15.7960000
  70.4820000 182.2070000  15.9210000  72.0060000 181.3790000  16.7550000
  72.0670000 183.0930000  15.9270000  71.7560000 179.8690000  14.5100000
  70.7400000 179.5570000  15.0490000  72.6220000 179.2480000  15.0490000
  71.6640000 179.1030000  13.5950000  70.6960000 181.9210000  10.9630000
  70.7480000 183.0110000  10.3830000  69.6770000 181.0560000  10.7730000
  69.4390000 179.7340000  11.3850000  69.0720000 179.7700000  12.5100000
  70.3600000 178.9750000  11.3740000  68.5830000 179.0510000  10.3840000
  67.9280000 178.1720000  10.8370000  69.2140000 178.3780000   9.6170000
  67.8970000 180.0930000   9.5510000  68.1670000 179.8900000   8.4010000
  66.7270000 180.3270000   9.5770000  68.5930000 181.4240000   9.8590000
  69.1140000 181.7540000   8.8360000  67.6500000 182.4310000  10.5020000
  67.3060000 182.3190000  11.6890000  67.2730000 183.4450000   9.7180000
  67.8490000 183.5900000   8.6910000  66.3440000 184.4930000  10.1390000
  66.5510000 184.9410000  11.2240000  66.4150000 185.7050000   9.1790000
  65.6240000 186.5400000   9.5030000  67.7740000 186.4150000   9.2150000
  67.9910000 187.0590000  10.1980000  67.7150000 187.2680000   8.3720000
  68.8540000 185.9750000   8.9570000  66.1200000 185.2800000   7.8430000
  65.2010000 185.8050000   7.3210000  64.9390000 183.8840000  10.2060000
  64.1980000 184.1590000  11.1490000  64.6110000 183.0140000   9.2200000
  65.3180000 182.9150000   8.2720000  63.3330000 182.3250000   9.0720000
  62.7170000 183.2710000   8.6640000  63.2990000 181.5520000   7.7560000
  63.4610000 182.1740000   6.7430000  64.2530000 180.8510000   7.6870000
  61.9320000 181.0540000   7.3500000  60.9190000 181.7500000   7.4730000
  61.8900000 179.8670000   6.7630000  61.2840000 179.9190000   5.7270000
  62.7810000 179.2950000   6.2560000  63.0470000 181.3930000  10.2550000
  63.8970000 180.5540000  10.5760000  61.8610000 181.5300000  10.9160000
  60.7590000 182.4820000  10.6540000  60.0010000 183.0680000   9.9570000
  61.5110000 183.3920000  10.6620000  59.6420000 181.9760000  11.5100000
  58.8230000 181.3300000  10.9320000  58.9290000 182.8620000  11.8900000
  60.2860000 181.2790000  12.6570000  60.5890000 182.1420000  13.4250000
  59.5360000 180.5910000  13.2600000  61.5470000 180.6510000  12.0620000
  62.3700000 180.8640000  12.8880000  61.3340000 179.1850000  11.6810000
  61.5620000 178.3170000  12.5220000  60.9080000 178.9140000  10.4220000
  60.7380000 179.7670000   9.6220000  60.7090000 177.5580000   9.9100000
  59.9410000 176.8950000  10.5290000  60.0600000 177.5060000   8.4940000
  60.5960000 177.9110000   7.5090000  60.0240000 176.0800000   7.9830000
  59.4120000 175.3070000   8.6430000  59.5730000 176.0200000   6.8710000
  61.0430000 175.5240000   7.7010000  58.6330000 178.1020000   8.4580000
  58.0010000 177.9900000   9.4590000  57.9250000 177.6120000   7.6290000
  58.5200000 179.5560000   8.0640000  59.4170000 180.1960000   7.6210000
  57.9460000 180.3730000   8.7260000  57.9700000 179.5750000   6.9930000
  62.0600000 176.8330000   9.9490000  62.1710000 175.8330000  10.6490000
  63.0950000 177.3790000   9.2600000  63.0240000 178.5060000   8.9120000
  64.4570000 176.8270000   9.1960000  64.4290000 175.7710000   8.6450000
  65.3630000 177.6840000   8.2830000  66.0880000 178.4750000   8.7830000
  66.0880000 176.8910000   7.7590000  64.7940000 178.1590000   6.9490000
  63.8910000 177.4800000   6.4020000  65.2830000 179.1850000   6.4300000
  65.0680000 176.7540000  10.6060000  65.5970000 175.7100000  11.0160000
  64.9570000 177.8580000  11.3510000  64.6440000 178.8420000  10.7920000
  65.4720000 177.9570000  12.7050000  66.6410000 177.7490000  12.7630000
  65.2580000 179.3690000  13.2580000  64.2070000 179.8830000  13.4190000
  65.7560000 180.1740000  12.5340000  65.8810000 179.6310000  14.6050000
  65.2050000 179.3110000  15.7760000  64.3310000 178.6530000  15.9270000
  65.7750000 179.5630000  17.0240000  64.8670000 179.4610000  17.7630000
  67.0050000 180.1760000  17.1110000  67.3390000 180.5160000  18.1890000
  67.6800000 180.5240000  15.9620000  68.8350000 180.7500000  15.8950000
  67.1150000 180.2580000  14.7080000  67.5550000 181.0270000  13.9240000
  64.8710000 176.9010000  13.6340000  65.6180000 176.3080000  14.4040000
  63.5380000 176.6640000  13.5880000  63.0700000 177.7690000  13.4570000
  62.9290000 175.6690000  14.4800000  63.4340000 175.8430000  15.5410000
  61.4060000 175.6530000  14.3700000  60.2560000 175.9420000  14.4840000
  61.4350000 175.5490000  15.5500000  60.9530000 175.3350000  13.0660000
  61.3700000 176.0580000  12.2540000  63.5220000 174.2950000  14.2090000
  63.9270000 173.6250000  15.1540000  63.6900000 173.9440000  12.9130000
  63.5840000 174.6510000  11.9740000  64.2460000 172.6620000  12.4600000
  63.5740000 171.9010000  13.0790000  64.0340000 172.4670000  10.9730000
  64.7640000 171.6130000  10.5690000  64.4310000 173.3230000  10.2440000
  62.6190000 172.1270000  10.5860000  61.9660000 171.0270000  11.1440000
  62.0720000 170.4940000  12.1950000  60.6820000 170.6640000  10.7360000
  60.1770000 169.8260000  11.4080000  60.0630000 171.3680000   9.7150000
  58.8050000 171.0390000   9.2890000  58.0050000 171.1090000  10.1520000
  60.7110000 172.4340000   9.1180000  60.5340000 172.5680000   7.9510000
  61.9830000 172.8030000   9.5510000  62.5230000 173.4340000   8.7010000
  65.7070000 172.4410000  12.8010000  66.0470000 171.3690000  13.3170000
  66.5720000 173.4540000  12.5110000  66.1690000 174.5530000  12.4060000
  68.0090000 173.4280000  12.8180000  68.3810000 172.6060000  12.0400000
  68.6670000 174.7940000  12.5130000  68.2950000 175.8540000  12.9050000
  68.6230000 174.8910000  11.3210000  70.1550000 174.9530000  12.9250000
  70.4490000 174.8040000  14.0730000  70.5050000 176.0850000  12.7670000
  71.1700000 174.1420000  12.1040000  72.3470000 174.0170000  12.1520000
  70.8340000 173.0670000  12.4640000  71.1320000 174.4360000  10.6630000
  70.5590000 173.6700000   9.9580000  71.9860000 175.2290000  10.0180000
  72.9760000 175.8270000  10.6750000  73.0280000 177.0050000  10.5020000
  74.0860000 175.5420000  10.9640000  71.8600000 175.4260000   8.7110000
  70.9640000 175.8040000   8.0260000  72.7550000 175.2270000   7.9580000
  68.1860000 173.0520000  14.2740000  68.8930000 172.0970000  14.5840000
  67.4650000 173.7500000  15.1450000  67.0420000 174.7620000  14.7110000
  67.4770000 173.5460000  16.5810000  68.6490000 173.5260000  16.8020000
  66.6570000 174.6670000  17.2600000  65.5590000 174.6210000  16.8030000
  66.5000000 174.4240000  18.7610000  66.3660000 173.3020000  19.1190000
  67.5110000 174.7370000  19.3050000  65.5090000 174.9140000  19.2020000
  67.2800000 176.0370000  16.9900000  68.3910000 175.8290000  17.3670000
  66.4760000 176.8200000  17.3880000  67.5530000 176.6120000  15.9800000
  66.9990000 172.1410000  16.9760000  67.5110000 171.6000000  17.9440000
  66.0310000 171.5580000  16.2460000  65.3210000 172.2200000  15.5780000
  65.4840000 170.2370000  16.5800000  65.1650000 170.0940000  17.7130000
  64.2600000 169.9470000  15.7220000  64.0180000 168.7780000  15.8000000
  63.2430000 170.5100000  15.9340000  64.2850000 170.0420000  14.5380000
  66.5360000 169.1600000  16.3700000  66.7070000 168.2550000  17.2060000
  67.2720000 169.3060000  15.2510000  67.4030000 170.3500000  14.7220000
  68.3190000 168.4060000  14.8000000  68.0250000 167.2530000  14.7520000
  68.7100000 168.7560000  13.3750000  68.8430000 169.8720000  12.9730000
  68.0680000 168.2240000  12.5440000  69.8620000 168.4580000  13.2300000
  69.5620000 168.3540000  15.7080000  70.3410000 167.4060000  15.5950000
  69.7490000 169.3450000  16.6050000  69.3510000 170.4450000  16.4280000
  70.8990000 169.3690000  17.5060000  71.5840000 168.5870000  16.9450000
  71.7280000 170.6270000  17.2840000  72.8910000 170.5820000  17.4250000
  71.6260000 170.9850000  16.1510000  70.9290000 172.1420000  17.8640000
  70.8450000 173.2130000  18.3420000  70.5130000 169.1770000  18.9920000
  71.3410000 169.3840000  19.8850000  69.2680000 168.7350000  19.2540000
  68.4320000 168.5650000  18.4470000  68.8290000 168.4510000  20.6210000
  69.4540000 169.3010000  21.1510000  67.3730000 168.8840000  20.8810000
  67.1480000 168.4870000  21.9810000  66.6990000 168.2360000  20.1430000
  67.0870000 170.3800000  20.8370000  67.6650000 170.7280000  19.8590000
  65.6150000 170.6500000  20.6690000  65.0160000 170.9480000  21.6580000
  64.9510000 169.7500000  20.2520000  65.4860000 171.5900000  19.9580000
  67.7130000 171.1250000  22.0230000  68.6920000 170.7920000  22.6280000
  66.9830000 171.1310000  22.9610000  68.1760000 172.0570000  21.4460000
  69.0230000 166.9650000  20.9650000  68.3880000 166.0940000  20.3420000
  69.9130000 166.6690000  21.9460000  70.7520000 167.6020000  22.7280000
  70.1060000 168.3800000  23.2830000  71.6810000 168.1380000  22.2260000
  71.3690000 166.7240000  23.8040000  72.3000000 166.9340000  24.5110000
  70.4930000 166.8010000  24.6230000  71.4040000 165.3430000  23.2190000
  71.3380000 164.4500000  24.0170000  72.2780000 164.9980000  22.4950000
  70.1430000 165.2610000  22.3490000  70.3620000 164.5840000  21.3960000
  68.9620000 164.6370000  23.1030000  69.0270000 164.4500000  24.3200000
  67.8820000 164.3040000  22.3730000  68.2090000 163.6620000  21.4210000
  66.6690000 163.7260000  22.9590000  67.0410000 163.3040000  24.0090000
  65.4370000 164.6700000  22.8770000  64.5400000 163.9600000  23.1900000
  65.5280000 165.7240000  23.9640000  64.6780000 165.8000000  24.7960000
  66.4200000 165.6490000  24.7620000  65.8940000 166.7620000  23.5070000
  65.2730000 165.3030000  21.4760000  65.5320000 166.0390000  20.5600000
  66.3040000 164.8170000  21.1590000  63.8630000 165.6310000  21.0890000
  63.5280000 165.8230000  19.9580000  62.9280000 164.9950000  21.4400000
  63.8000000 166.7620000  21.4440000  66.3700000 162.3350000  22.4080000
  66.8840000 161.9680000  21.3480000  65.5460000 161.5590000  23.1480000
  65.4170000 161.7770000  24.3060000  65.1490000 160.2000000  22.7750000
  66.1840000 159.6150000  22.6800000  64.5070000 159.4560000  23.9560000
  64.1640000 158.3830000  23.6130000  65.0520000 159.1780000  24.9800000
  63.4100000 160.2350000  24.6230000  63.7230000 161.0100000  25.5630000
  62.2350000 160.0990000  24.1870000  64.2590000 160.1740000  21.5400000
  63.7530000 161.2170000  21.1270000  64.0920000 158.9910000  20.9360000
  64.5380000 157.9570000  21.3240000  63.3180000 158.8390000  19.7090000
  63.7930000 159.3940000  18.7700000  63.4800000 157.4390000  19.1040000
  63.2240000 156.6210000  19.9330000  62.8960000 156.9860000  18.1830000
  64.8400000 157.2120000  18.4670000  65.1560000 157.9070000  17.4540000
  65.5950000 156.3490000  18.9760000  61.8670000 159.1990000  19.8680000
  61.3230000 159.8520000  18.9780000  61.2500000 158.8240000  21.0040000
  61.7200000 158.0270000  21.7410000  59.8390000 159.1220000  21.2890000
  59.1250000 158.4950000  20.5680000  59.4500000 158.5760000  22.6550000
  59.9750000 157.6290000  23.1710000  59.2410000 159.2270000  23.6350000
  58.3450000 158.1080000  22.5580000  59.5610000 160.6260000  21.2270000
  58.5560000 161.0460000  20.6480000  60.4850000 161.4190000  21.7880000
  61.0510000 160.8070000  22.6260000  60.3970000 162.8640000  21.8390000
  59.2430000 163.0290000  22.0700000  61.3290000 163.3690000  22.9370000
  62.4470000 163.3320000  22.5700000  61.2290000 162.6080000  23.8590000
  60.8670000 164.5960000  23.7200000  60.4970000 165.3890000  22.9090000
  59.5160000 164.3700000  24.4020000  59.0610000 165.3710000  24.8850000
  59.5630000 163.6670000  25.3730000  58.4860000 163.9490000  23.9580000
  61.8900000 164.9660000  24.7670000  62.7050000 165.6690000  24.2810000
  61.3870000 165.5560000  25.6780000  62.4470000 164.1310000  25.4190000
  60.6920000 163.5180000  20.4810000  60.0170000 164.4800000  20.1200000
  61.6640000 162.9760000  19.7200000  62.5220000 162.3450000  20.2190000
  62.0310000 163.4530000  18.3780000  62.1580000 164.6330000  18.2960000
  63.2720000 162.7180000  17.8280000  63.2540000 162.9130000  16.6470000
  63.2940000 161.5850000  18.1710000  64.6110000 163.3770000  18.1310000
  64.6420000 164.4240000  17.5600000  64.7470000 163.5670000  19.2910000
  65.8040000 162.4910000  17.7650000  66.6320000 162.7490000  18.5800000
  65.6660000 161.3150000  17.8230000  66.2410000 162.6140000  16.3680000
  66.0100000 161.7080000  15.6450000  67.0130000 163.5950000  15.8980000
  67.3980000 164.5900000  16.6930000  66.9060000 165.6660000  16.7160000
  68.0930000 164.2310000  17.5620000  67.3740000 163.6090000  14.6210000
  66.8390000 163.4630000  13.5810000  68.4790000 163.9870000  14.4330000
  60.8690000 163.2750000  17.4100000  60.6140000 164.1760000  16.6220000
  60.1680000 162.1220000  17.4600000  60.2170000 161.3740000  18.3650000
  59.0120000 161.8590000  16.5950000  59.3250000 161.9390000  15.4500000
  58.4810000 160.4010000  16.7400000  58.1510000 160.1190000  17.8520000
  57.1250000 160.2320000  16.0420000  56.2420000 160.8990000  16.4650000
  56.5950000 159.1800000  16.2600000  57.1100000 160.2730000  14.8510000
  59.4850000 159.3790000  16.1890000  60.5830000 159.7960000  16.2920000
  59.1960000 159.1480000  15.0650000  59.3230000 157.9120000  16.6980000
  60.3460000 157.3310000  16.9020000  58.5500000 157.3190000  15.9990000
  58.8130000 157.7140000  17.7590000  57.9280000 162.9120000  16.8750000
  57.3660000 163.4660000  15.9270000  57.6730000 163.2100000  18.1760000
  58.1710000 162.6260000  19.0710000  56.6920000 164.2030000  18.6150000
  55.6270000 163.9100000  18.1790000  56.5260000 164.2300000  20.1490000
  57.2410000 164.5080000  21.0500000  55.7040000 165.0840000  20.2850000
  55.8650000 162.9560000  20.7310000  55.3790000 163.2500000  21.7730000
  56.5670000 162.0450000  21.0410000  54.5410000 162.5140000  20.0930000
  53.5600000 163.2660000  20.0130000  54.4640000 161.2510000  19.6810000
  53.5740000 160.4800000  19.8130000  55.3390000 160.5240000  20.0330000
  56.9920000 165.5710000  18.0360000  56.0770000 166.2400000  17.5780000
  58.2700000 165.9330000  17.9580000  58.8460000 165.4310000  18.8520000
  58.7470000 167.1660000  17.3390000  58.0220000 167.9750000  17.8170000
  60.2380000 167.2810000  17.6580000  60.8220000 166.9090000  16.6860000
  60.6180000 166.6850000  18.6160000  60.7780000 168.6440000  18.0250000
  60.6630000 169.1790000  16.9660000  60.0500000 169.2300000  19.2310000
  59.6100000 170.2730000  18.8700000  59.1590000 168.5610000  19.6670000
  60.6080000 169.4840000  20.2550000  62.2400000 168.5360000  18.3660000
  62.6990000 169.6180000  18.2030000  62.8400000 167.7600000  17.6870000
  62.6030000 168.2800000  19.4750000  58.5520000 167.1330000  15.7980000
  58.3210000 168.1670000  15.1730000  58.6580000 165.9430000  15.1880000
  59.0850000 164.9670000  15.6850000  58.5060000 165.7880000  13.7390000
  58.9530000 166.7830000  13.2600000  59.1440000 164.4640000  13.2430000
  60.2280000 164.2020000  13.6920000  58.2620000 163.6800000  13.4740000
  59.3680000 164.3630000  11.7280000  58.4000000 164.7170000  11.1270000
  60.5920000 165.1230000  11.2940000  61.5300000 164.4130000  11.1110000
  60.3880000 165.8890000  10.4100000  60.8680000 165.9530000  12.1000000
  59.4720000 162.9350000  11.2840000  58.3600000 162.5920000  11.0060000
  60.0690000 162.8190000  10.2520000  59.9080000 162.1760000  12.1070000
  57.0260000 165.9260000  13.3050000  56.7410000 166.3700000  12.1790000
  56.0970000 165.5700000  14.2150000  56.2730000 165.2420000  15.3330000
  54.6650000 165.6740000  13.9590000  54.3110000 165.2920000  12.8900000
  53.8540000 164.9560000  15.0580000  52.7200000 165.1510000  14.7120000
  53.7510000 165.5400000  16.0910000  54.0330000 163.4430000  15.1620000
  55.0970000 163.1810000  15.6130000  53.8020000 163.0260000  14.0720000
  53.0850000 162.8820000  16.2420000  51.9750000 163.1900000  15.9010000
  53.1320000 163.3480000  17.3400000  53.1850000 161.3850000  16.4610000
  53.9400000 160.5410000  16.7810000  53.2900000 161.1120000  15.3220000
  52.1640000 160.8770000  17.4250000  52.0200000 159.7220000  17.7070000
  51.8670000 161.3890000  18.4620000  51.1160000 161.0590000  16.8630000
  54.2610000 167.1750000  13.8730000  53.4030000 167.5360000  13.0490000
  54.9160000 168.0390000  14.7020000  55.6880000 167.6060000  15.4780000
  54.6740000 169.4840000  14.7920000  53.5340000 169.3640000  15.1440000
  55.6510000 170.2100000  15.7800000  56.6020000 169.8430000  15.1670000
  55.3910000 171.6880000  15.8450000  56.2820000 172.1410000  16.4640000
  54.3110000 171.6570000  16.3450000  55.2560000 172.2090000  14.7870000
  55.6840000 169.6040000  17.2100000  56.7270000 170.0730000  17.4840000
  55.8840000 168.5700000  17.7520000  54.4510000 169.7400000  18.0870000
  53.3550000 169.8850000  17.6250000  54.5120000 170.5430000  18.9720000
  54.1400000 168.8300000  18.8130000  54.6890000 170.1250000  13.4000000
  55.6610000 169.9680000  12.6550000  53.6060000 170.8240000  13.0710000
  52.5150000 170.5960000  13.4870000  53.4580000 171.5090000  11.7930000
  52.3410000 171.4010000  11.3930000  54.1040000 171.0440000  10.9130000
  53.8400000 172.9780000  11.8180000  54.2820000 173.5190000  10.7930000
  53.6600000 173.6440000  12.9860000  52.8180000 173.1600000  13.6550000
  53.9920000 175.0570000  13.1450000  53.7450000 175.5040000  12.0720000
  52.9480000 175.7670000  14.0000000  51.8640000 175.8280000  13.4940000
  52.7460000 175.1690000  15.0030000  53.2220000 177.1570000  14.0650000
  54.1990000 177.4280000  14.6340000  55.3680000 175.2600000  13.7580000
  55.7520000 174.5490000  14.6910000  56.0800000 176.2880000  13.2670000
  55.8200000 176.5450000  12.1360000  57.3730000 176.7060000  13.7960000
  57.9500000 175.6790000  13.6550000  57.9600000 177.8000000  12.9250000
  57.4390000 178.0940000  11.8910000  58.0160000 178.8870000  13.4120000
  59.0940000 177.5190000  12.7110000  57.2130000 177.2080000  15.2360000
  58.1020000 176.9890000  16.0560000  56.0620000 177.8480000  15.5490000
  55.9370000 178.6390000  14.6740000  55.7180000 178.3700000  16.8830000
  56.6150000 179.1120000  17.1050000  54.4090000 179.2300000  16.8490000
  53.4400000 178.6540000  16.4600000  53.9940000 179.7300000  18.2420000
  53.0740000 180.5020000  18.1490000  54.7260000 180.2800000  18.9820000
  53.3930000 178.8520000  18.8000000  54.5260000 180.4010000  15.8670000
  54.7720000 181.3480000  16.5570000  55.2000000 180.6470000  14.9190000
  53.1850000 180.7610000  15.2050000  52.8670000 180.0640000  14.3010000
  52.2100000 180.7600000  15.8950000  53.1590000 181.9290000  14.9230000
  55.6240000 177.1930000  17.8600000  56.3740000 177.1610000  18.8390000
  54.7390000 176.2080000  17.5570000  53.6910000 176.5380000  17.1240000
  54.5090000 175.0140000  18.3770000  53.9730000 175.2620000  19.4140000
  53.5300000 174.0470000  17.7020000  53.8520000 173.7080000  16.6130000
  53.3180000 173.2110000  18.5230000  52.1420000 174.5920000  17.3850000
  51.7520000 175.5800000  16.8520000  51.5870000 174.6930000  18.4410000
  51.2410000 173.6170000  16.6410000  51.6840000 172.6640000  15.9630000
  49.9380000 173.8620000  16.7330000  49.3030000 173.5330000  17.6830000
  49.1080000 174.0880000  15.9090000  55.8230000 174.3050000  18.5900000
  56.0730000 173.8020000  19.6870000  56.6780000 174.2970000  17.5430000
  56.4840000 175.0410000  16.6490000  57.9920000 173.6710000  17.5790000
  57.8720000 172.5850000  18.0460000  58.5980000 173.5750000  16.1800000
  57.8020000 173.4120000  15.3130000  59.0740000 174.6440000  15.9750000
  59.6710000 172.4980000  16.0850000  59.9370000 171.5760000  16.7580000
  60.6090000 173.1830000  16.3430000  59.6490000 171.7940000  14.7500000
  60.6010000 171.1490000  14.4550000  58.9000000 170.8810000  14.9220000
  59.6130000 172.7600000  13.6560000  60.7430000 173.0840000  13.5360000
  58.6740000 172.7960000  12.7190000  57.7010000 171.8880000  12.7070000
  56.9220000 171.7260000  11.8280000  57.2980000 171.1770000  13.5500000
  58.7180000 173.7160000  11.7640000  59.6610000 173.8990000  11.0860000
  57.8320000 174.4730000  11.5330000  58.9440000 174.3650000  18.5520000
  59.4700000 173.6890000  19.4270000  59.1390000 175.6960000  18.4260000
  58.2620000 176.3830000  18.0480000  60.0130000 176.4770000  19.3040000
  61.0230000 175.8810000  19.1710000  60.0650000 177.9530000  18.8790000
  59.1400000 178.6860000  18.9380000  60.6000000 178.3880000  19.7810000
  60.6640000 178.2550000  17.5260000  60.0020000 177.5980000  16.8330000
  60.1630000 179.5510000  17.0000000  59.0130000 179.8010000  16.8080000
  60.3720000 179.6880000  15.8300000  60.6230000 180.5640000  17.4320000
  62.1850000 178.2030000  17.5640000  62.5260000 179.3370000  17.2140000
  62.3430000 177.1810000  18.2800000  62.4170000 177.4300000  16.5320000
  59.5450000 176.3570000  20.7430000  60.3600000 176.1860000  21.6380000
  58.2320000 176.4010000  20.9640000  57.6110000 177.2450000  20.4240000
  57.6580000 176.2690000  22.3000000  58.0970000 176.9780000  23.1480000
  56.1440000 176.4730000  22.2520000  55.4080000 175.7560000  21.6490000
  55.9120000 176.0770000  23.3640000  55.7400000 177.9140000  22.0520000
  55.6860000 178.5580000  21.0710000  56.2240000 178.4110000  23.0220000
  54.2450000 178.1150000  22.1540000  53.6830000 177.5450000  21.2600000
  53.7050000 179.1720000  22.2430000  53.6350000 177.3660000  23.2520000
  52.9320000 176.4390000  22.9890000  53.6480000 177.7350000  24.5280000
  54.2820000 178.8410000  24.9020000  55.3880000 179.2640000  24.9330000
  54.0890000 178.9670000  26.0760000  53.0680000 176.9770000  25.4470000
  53.1910000 175.8050000  25.6270000  52.2840000 177.2620000  26.2910000
  57.9990000 174.8910000  22.8880000  58.3770000 174.8090000  24.0660000
  57.8980000 173.8220000  22.0500000  57.4290000 174.0550000  20.9990000
  58.2160000 172.4500000  22.4260000  57.4080000 172.1130000  23.2410000
  57.8200000 171.4760000  21.3150000  58.0970000 170.8080000  20.3920000
  56.7740000 171.8560000  20.9410000  57.6280000 169.7490000  21.8560000
  57.4330000 168.9690000  22.7140000  59.7120000 172.3780000  22.7440000
  60.0720000 171.9250000  23.8230000  60.5580000 172.9150000  21.8530000
  60.1330000 173.8640000  21.3000000  62.0170000 172.9520000  21.9760000
  62.2960000 171.7940000  21.9850000  62.6660000 173.5220000  20.7260000
  62.4990000 174.6820000  20.5190000  63.8110000 173.5360000  21.0520000
  62.5250000 172.5870000  19.5490000  63.2250000 171.6310000  19.5800000
  61.4250000 172.1750000  19.3560000  62.8780000 173.1570000  18.1940000
  63.2470000 174.3510000  18.1020000  62.7620000 172.3940000  17.2100000
  62.5120000 173.6870000  23.1920000  63.4880000 173.2400000  23.7950000
  61.8580000 174.8060000  23.5650000  60.7840000 175.1530000  23.2740000
  62.2190000 175.5570000  24.7660000  63.3920000 175.6960000  24.6520000
  61.5390000 176.9280000  24.8290000  60.3390000 176.8420000  24.8700000
  61.7080000 177.3550000  25.9340000  62.1760000 177.9890000  23.9340000
  62.5610000 177.3170000  23.0350000  61.1730000 179.0170000  23.4900000
  60.4910000 178.5150000  22.6510000  60.4530000 179.4120000  24.3550000
  61.7510000 179.8840000  22.9260000  63.3910000 178.6290000  24.5880000
  64.2890000 179.2680000  24.1510000  63.0040000 179.3100000  25.4940000
  64.0860000 177.9050000  25.2460000  61.8860000 174.7310000  25.9760000
  62.7200000 174.6250000  26.8620000  60.7170000 174.0610000  25.9690000
  59.7230000 174.6980000  25.8430000  60.2750000 173.1910000  27.0630000
  60.1210000 173.8250000  28.0610000  58.8900000 172.5840000  26.7680000
  58.5570000 171.8820000  25.8700000  58.0430000 173.4280000  26.8510000
  58.2960000 171.7960000  27.9230000  58.4440000 172.2390000  29.0820000
  57.6250000 170.7690000  27.6610000  61.3120000 172.0960000  27.3190000
  61.7420000 171.9090000  28.4590000  61.7520000 171.4240000  26.2390000
  61.4430000 171.7880000  25.1650000  62.7860000 170.3960000  26.2660000
  62.4130000 169.5430000  27.0130000  63.0030000 169.7800000  24.8410000
  63.0610000 170.6030000  23.9900000  64.4190000 169.1850000  24.6880000
  64.4350000 168.2280000  25.4050000  65.4390000 169.6720000  25.0760000
  64.7310000 168.9730000  23.5600000  61.9070000 168.7330000  24.5110000
  61.9290000 167.9240000  25.3860000  60.7770000 169.0940000  24.6960000
  61.8540000 168.2570000  23.0380000  60.7200000 167.9660000  22.7930000
  62.1100000 169.0640000  22.2140000  62.5390000 167.3060000  22.9050000
  64.0580000 171.0330000  26.8350000  64.5590000 170.5420000  27.8380000
  64.5360000 172.1540000  26.2350000  63.7900000 172.8960000  25.7120000
  65.7520000 172.8520000  26.6440000  66.6260000 172.0770000  26.4100000
  65.9620000 174.1170000  25.8320000  66.7600000 174.7620000  26.4500000
  65.1720000 174.9910000  25.6830000  66.5910000 173.8750000  24.5020000
  65.9510000 173.2630000  23.7170000  67.7430000 173.6390000  24.6810000
  66.7210000 175.4440000  23.6290000  67.6930000 174.9690000  22.2760000
  67.8210000 174.0300000  21.5710000  68.6770000 175.2330000  22.8770000
  67.3720000 175.8560000  21.5670000  65.8050000 173.1770000  28.1070000
  66.8770000 173.1020000  28.6800000  64.6690000 173.5230000  28.7220000
  63.5360000 173.6220000  28.4120000  64.6210000 173.8840000  30.1360000
  65.5440000 174.5320000  30.5240000  63.4370000 174.8070000  30.4300000
  62.3540000 174.3440000  30.5560000  63.6450000 175.3400000  31.4780000
  63.4420000 176.0810000  29.5970000  64.4970000 176.5890000  29.1760000
  62.2540000 176.6100000  29.3120000  61.1050000 176.4010000  29.0920000
  62.2210000 177.7090000  29.7700000  64.6460000 172.6700000  31.0480000
  65.3670000 172.6960000  32.0470000  63.8800000 171.6060000  30.7020000
  62.9540000 171.6030000  29.9760000  63.8160000 170.3540000  31.4730000
  63.8530000 170.5940000  32.6430000  62.5870000 169.5100000  31.0980000
  62.5520000 169.0180000  30.0140000  62.7420000 168.5070000  31.7340000
  61.2390000 170.0900000  31.5560000  61.4880000 170.2930000  32.6920000
  60.6970000 171.1070000  31.3870000  60.0670000 169.1490000  31.1860000
  60.3370000 168.1250000  31.7430000  59.9280000 168.9310000  30.0150000
  58.6970000 169.6020000  31.6610000  58.1360000 170.6070000  31.3120000
  58.7410000 169.7070000  32.8560000  57.6200000 168.6400000  31.2710000
  57.8150000 167.4580000  31.2730000  56.6700000 168.6800000  32.0050000
  57.1430000 168.8000000  30.1840000  65.1140000 169.5360000  31.3730000
  65.4360000 168.8150000  32.3190000  65.8520000 169.6590000  30.2240000
  65.9650000 170.7380000  29.7590000  67.1530000 169.0280000  29.8920000
  66.8480000 167.9050000  29.6220000  67.6460000 169.5110000  28.5160000
  67.0250000 169.3950000  27.5050000  68.5670000 170.2540000  28.4370000
  68.7620000 168.3730000  27.6190000  69.7590000 167.9600000  27.1530000
  68.1060000 169.4680000  31.0170000  68.2370000 170.6730000  31.2900000
  68.6540000 168.4910000  31.7540000  68.1490000 167.4250000  31.6210000
  69.6000000 168.7570000  32.8510000  70.1390000 169.8190000  32.8150000
  68.9240000 168.7190000  34.2460000  69.7750000 168.8710000  35.0700000
  67.9110000 169.8480000  34.4600000  68.4080000 170.8960000  34.7580000
  67.3390000 169.6080000  35.4880000  66.9730000 170.2110000  33.8180000
  68.3200000 167.4360000  34.4600000  68.2020000 167.1330000  35.6010000
  70.7990000 167.8020000  32.7390000  71.9090000 168.2450000  32.4270000
  70.5460000 166.4870000  32.9270000  69.4910000 165.9390000  32.9490000
  71.5650000 165.4500000  32.9210000  72.5610000 166.0920000  32.9800000
  71.6610000 164.8350000  34.3080000  70.6740000 164.4280000  34.8570000
  72.1200000 165.6380000  35.0770000  72.4650000 163.6730000  34.2830000
  72.1660000 162.8720000  35.0850000  71.3280000 164.3570000  31.8790000
  70.2040000 163.8790000  31.7140000  72.4060000 163.9350000  31.2190000
  73.2810000 164.1090000  31.9780000  72.4000000 162.9040000  30.1990000
  71.3050000 162.6060000  29.8500000  73.0600000 163.4280000  28.9290000
  73.7490000 162.4530000  29.0340000  73.8220000 163.5790000  28.0140000
  72.2650000 164.5090000  28.2340000  71.5510000 165.1430000  28.9560000
  73.1540000 165.4990000  27.5930000  73.7680000 165.2610000  26.6020000
  72.4040000 166.3850000  27.3120000  73.8570000 166.0750000  28.3660000
  71.3140000 163.9200000  27.2500000  70.2730000 163.5420000  27.6820000
  71.6620000 163.0520000  26.5230000  70.8530000 164.7480000  26.5210000
  73.0670000 161.6500000  30.7300000  74.2300000 161.6680000  31.1310000
  72.2890000 160.5720000  30.7770000  71.2560000 160.8930000  31.2470000
  72.6490000 159.2790000  31.3380000  73.6020000 159.4190000  32.0200000
  71.5710000 158.8380000  32.3120000  71.6570000 157.8880000  33.0290000
  70.4090000 158.9620000  32.1030000  71.5140000 159.8080000  33.8180000
  71.1830000 160.4090000  34.7750000  72.8830000 158.2150000  30.3370000
  72.5870000 158.3770000  29.1620000  73.3270000 157.0730000  30.8310000
  74.0080000 157.0340000  31.7840000  73.5350000 155.8820000  30.0470000
  74.0610000 155.9570000  28.9880000  74.4800000 154.9510000  30.7940000
  73.9830000 154.8110000  31.8610000  75.6530000 154.9830000  30.6840000
  74.6470000 153.3230000  30.0520000  74.6080000 152.4010000  29.3350000
  72.1630000 155.2560000  29.8760000  71.5620000 154.8900000  30.8750000
  71.6510000 155.1460000  28.6280000  72.0770000 155.8700000  27.8110000
  70.3220000 154.5620000  28.3510000  69.4120000 154.9620000  28.9990000
  70.0300000 154.5340000  26.8410000  70.2370000 155.5740000  26.2930000
  70.7330000 153.6430000  26.4700000  68.5930000 154.1720000  26.4510000
  67.5540000 154.4650000  26.9420000  68.5220000 152.9890000  26.6460000
  68.3590000 154.2040000  24.9380000  69.2300000 153.5830000  24.4060000
  67.3890000 153.5780000  24.6520000  68.0350000 155.5870000  24.4130000
  68.7940000 156.4690000  24.6390000  66.9080000 155.7940000  24.7480000
  68.0340000 155.6210000  22.9260000  68.1920000 156.7090000  22.4750000
  68.5020000 154.7770000  22.2130000  66.8840000 155.4370000  22.6200000
  70.1840000 153.1690000  28.9360000  69.0900000 152.8020000  29.3630000
  71.2960000 152.4220000  28.9970000  72.3080000 152.8100000  28.5650000
  71.3430000 151.0620000  29.5040000  70.3420000 150.5390000  29.1260000
  72.5930000 150.3480000  29.0010000  73.6280000 150.4620000  29.5490000
  72.4130000 150.3540000  27.8250000  72.4930000 148.8540000  29.1830000
  72.5510000 148.3920000  30.2870000  71.4820000 148.4010000  28.7150000
  73.5020000 148.0740000  28.4050000  74.1500000 148.5570000  27.4670000
  73.6160000 146.8190000  28.7510000  74.2920000 146.0890000  28.0950000
  73.1360000 146.0570000  29.5260000  71.2670000 150.9760000  31.0080000
  70.6020000 150.0760000  31.5100000  72.0070000 151.8410000  31.7330000
  72.9500000 152.3100000  31.2040000  72.0320000 151.8470000  33.2010000
  71.9380000 150.7210000  33.5900000  73.2750000 152.5630000  33.7080000
  73.3790000 152.1180000  34.8160000  73.6950000 153.6270000  33.4560000
  74.8120000 151.7050000  33.3750000  75.5920000 150.8630000  33.4540000
  70.8100000 152.5600000  33.6870000  70.2630000 152.2260000  34.7380000
  70.4650000 153.6340000  32.9660000  71.4310000 154.3180000  32.9160000
  69.4280000 154.6070000  33.2340000  69.4290000 155.2980000  32.2680000
  68.0760000 153.9670000  33.5850000  68.6020000 152.8940000  33.7790000
  67.2220000 153.5070000  34.2930000  67.4210000 153.1930000  32.4520000
  67.4770000 152.2620000  31.7110000  67.5700000 153.9810000  31.5880000
  66.2410000 152.4630000  33.0020000  65.1280000 152.9940000  33.0570000
  66.4810000 151.2820000  33.5370000  66.2300000 150.2750000  32.9530000
  66.4520000 150.9410000  34.6810000  69.8750000 155.5850000  34.3120000
  69.5760000 156.7740000  34.1700000  70.5930000 155.1060000  35.3740000
  70.7560000 154.0040000  35.7760000  71.0330000 155.9190000  36.5210000
  70.5580000 157.0070000  36.6200000  70.8080000 155.1930000  37.8620000
  69.7150000 155.5780000  38.0910000  71.2100000 155.3200000  38.9770000
  71.4360000 153.8100000  37.9270000  72.6950000 153.7130000  37.8380000
  70.6770000 152.8200000  38.0590000  72.4720000 156.4330000  36.4350000
  72.7850000 157.4050000  37.1270000  73.3440000 155.8130000  35.6220000
  73.1990000 154.6400000  35.6640000  74.7180000 156.2950000  35.4950000
  75.0270000 156.4570000  36.6380000  75.6110000 155.2530000  34.8060000
  75.4160000 154.9830000  33.6700000  77.0550000 155.6610000  34.7530000
  77.1940000 156.7580000  34.3200000  77.9210000 154.9700000  34.3340000
  77.4370000 155.8050000  35.8790000  75.5170000 154.0160000  35.4870000
  75.4690000 154.0780000  36.6710000  74.7040000 157.6040000  34.7020000
  74.3520000 157.5770000  33.5200000  75.0650000 158.7480000  35.3490000
  75.3140000 158.7330000  36.5120000  75.1490000 160.0530000  34.6780000
  74.0350000 160.1150000  34.2680000  74.9650000 161.2040000  35.6750000
  73.9460000 161.2980000  36.2900000  75.7250000 161.0960000  36.6000000
  75.3160000 162.5760000  35.1230000  75.2060000 163.5190000  34.4090000
  76.2880000 162.2740000  34.5390000  75.2040000 163.6900000  36.1410000
  74.0630000 164.0980000  36.4550000  76.2590000 164.1440000  36.6410000
  76.4880000 160.1580000  33.9300000  77.5330000 159.9270000  34.5260000
  76.4380000 160.4820000  32.6260000  75.3290000 160.5610000  32.2490000
  77.5990000 160.5820000  31.7480000  78.5300000 160.1660000  32.3520000
  77.3900000 159.7530000  30.4320000  76.2610000 159.6750000  30.0630000
  78.1790000 160.3240000  29.2400000  77.5690000 161.3290000  29.0370000
  78.0190000 159.7810000  28.1920000  79.3160000 160.6610000  29.2950000
  77.8090000 158.2790000  30.6280000  78.7630000 158.5340000  29.9560000
  78.6160000 157.4370000  30.9430000  76.9150000 157.4390000  31.4120000
  77.2320000 156.3910000  31.8930000  76.4660000 158.0030000  32.3490000
  76.1750000 157.2360000  30.5190000  77.9810000 162.0340000  31.4960000
  79.1620000 162.3370000  31.4500000  77.0070000 162.9230000  31.2780000
  76.0520000 162.8060000  31.9620000  77.2870000 164.3470000  31.0470000
  77.9180000 164.5830000  32.0340000  77.8980000 164.6320000  29.6600000
  78.8020000 163.9200000  29.3640000  76.9070000 164.4380000  28.5260000
  76.1990000 165.3870000  28.5930000  77.1830000 164.5080000  27.3740000
  76.2540000 163.4560000  28.6900000  78.4230000 165.9580000  29.6550000
  79.2960000 166.1310000  30.4370000  76.0690000 165.1850000  31.3550000
  75.0060000 164.6610000  31.6520000  76.2430000 166.4840000  31.3170000
  77.3300000 166.7130000  31.7060000  75.2020000 167.4390000  31.6320000
  74.1430000 166.9330000  31.7470000  75.5790000 168.1300000  32.9360000
  75.5810000 167.3850000  33.8710000  76.8450000 168.9590000  32.8200000
  76.9040000 169.8470000  33.6320000  77.6500000 168.2730000  33.3850000
  77.1690000 169.6260000  31.9010000  74.5010000 168.9670000  33.3300000
  74.5740000 169.3840000  34.4270000  74.9820000 168.3980000  30.4530000
  75.7800000 168.3990000  29.5170000  73.9050000 169.2040000  30.5010000
  73.2840000 169.3760000  31.4920000  73.5460000 170.2130000  29.4940000
  73.2160000 169.5000000  28.6060000  72.2010000 170.8570000  29.8830000
  71.3760000 169.9920000  29.8670000  72.2410000 171.3800000  30.9470000
  71.6540000 171.9490000  28.9410000  72.4510000 172.8020000  28.6930000
  71.2670000 171.4130000  27.9470000  70.4940000 172.6970000  29.6230000
  70.7600000 173.0740000  30.7310000  69.5440000 171.9810000  29.7040000
  70.1120000 173.9970000  28.9630000  69.6780000 173.8310000  27.8670000
  71.0210000 174.7550000  29.0420000  69.1270000 174.7480000  29.7970000
  68.1090000 174.3150000  30.2470000  68.7980000 175.7730000  29.2690000
  69.5450000 175.2220000  30.8210000  74.6540000 171.2850000  29.3990000
  74.9220000 171.8100000  28.3190000  75.3010000 171.5820000  30.5280000
  74.8000000 171.4330000  31.5900000  76.3480000 172.5870000  30.6230000
  76.0100000 173.5850000  30.0610000  76.6330000 172.9340000  32.0860000
  77.3580000 173.8860000  32.1330000  77.2380000 172.2010000  32.8070000
  75.5060000 173.6590000  32.7790000  75.1000000 174.7640000  32.3840000
  75.0190000 173.0790000  33.8700000  75.5790000 173.2390000  34.9070000
  73.8640000 172.9900000  34.1450000  77.6340000 172.2240000  29.8970000
  78.4520000 173.1200000  29.6590000  77.8400000 170.9300000  29.5650000
  77.0690000 170.0620000  29.7290000  79.0700000 170.5030000  28.8850000
  79.8350000 171.4130000  29.0020000  79.5750000 169.1500000  29.4020000
  78.7400000 168.3740000  29.0600000  80.5710000 168.9990000  28.7850000
  79.9860000 169.1860000  30.8630000  79.0820000 168.9000000  31.5570000
  80.7110000 168.3640000  31.3410000  80.9050000 170.3040000  31.3330000
  81.8550000 170.6710000  30.6010000  80.6960000 170.7790000  32.4740000
  78.9450000 170.5130000  27.3790000  79.9620000 170.4880000  26.6880000
  77.6910000 170.5870000  26.8820000  77.1470000 171.5010000  27.3960000
  77.3130000 170.6330000  25.4730000  77.8570000 169.7030000  24.9900000
  75.7780000 170.5530000  25.3370000  75.2770000 171.5030000  25.8440000
  75.3520000 170.6930000  23.8880000  76.0330000 169.9230000  23.2930000
  75.4670000 171.8030000  23.4810000  74.2130000 170.5400000  23.5690000
  75.2110000 169.2610000  25.9460000  75.5590000 168.2590000  25.4190000
  75.5290000 169.0970000  27.0800000  73.6750000 169.1860000  25.9160000
  73.0590000 169.0010000  24.9110000  73.1230000 170.2030000  26.1990000
  73.1960000 168.3830000  26.6550000  77.8780000 171.9080000  24.8280000
  77.8050000 172.9870000  25.4180000  78.4700000 171.7730000  23.6370000
  79.0040000 170.8180000  23.1930000  79.0370000 172.8940000  22.8940000
  78.3070000 173.7970000  23.1260000  80.4460000 173.2350000  23.4030000
  80.7980000 174.3300000  23.0880000  80.3050000 173.3720000  24.5800000
  81.5420000 172.3010000  22.9590000  81.7390000 171.0790000  23.5910000
  81.4610000 171.1480000  24.7370000  82.7490000 170.2040000  23.1640000
  83.2530000 169.4600000  23.9230000  83.5850000 170.5680000  22.1350000
  84.6410000 170.1540000  21.8310000  83.4120000 171.7850000  21.5120000
  84.2390000 172.6030000  21.2670000  82.3840000 172.6430000  21.9120000
  82.3520000 173.7310000  21.4420000  79.0150000 172.5900000  21.3850000
  79.1970000 171.4370000  20.9800000  78.7740000 173.6200000  20.5630000
  79.5600000 174.5060000  20.6560000  78.7010000 173.4570000  19.1160000
  77.9810000 172.5840000  18.7670000  77.7430000 174.4780000  18.5060000
  78.3790000 175.4770000  18.3810000  77.3310000 174.4710000  17.3850000
  76.5430000 174.5830000  19.2610000  76.4250000 175.6090000  19.8140000
  80.0830000 173.4810000  18.4490000  80.6270000 174.5510000  18.1810000
  80.6550000 172.2920000  18.1930000  80.6170000 171.6030000  19.1510000
  81.9520000 172.1690000  17.5180000  82.5480000 173.1730000  17.7580000
  82.6390000 170.8570000  17.9160000  82.7210000 170.8120000  19.1030000
  81.9790000 169.9910000  17.4700000  84.1210000 170.7370000  17.5570000
  84.2320000 171.2650000  16.4980000  85.0260000 171.3730000  18.5850000
  84.7140000 172.4900000  18.8570000  86.0590000 171.5660000  18.0200000
  85.3650000 170.7730000  19.5570000  84.4920000 169.3340000  17.4030000
  85.2400000 169.3790000  16.4700000  83.7040000 168.4600000  17.2400000
  85.2150000 168.9320000  18.2710000  81.7840000 172.2630000  15.9860000
  82.7620000 172.3850000  15.2500000  80.5330000 172.2180000  15.5250000
  79.5110000 172.3050000  16.1240000  80.1130000 172.3230000  14.1300000
  81.0910000 172.5370000  13.4980000  79.4510000 171.0160000  13.7090000
  78.3830000 170.7500000  14.1940000  80.0050000 170.0060000  14.0170000
  78.8000000 171.0780000  12.4550000  79.3510000 171.7800000  11.7160000
  79.1090000 173.4760000  14.0340000  78.5220000 173.8640000  15.0490000
  78.9080000 174.0220000  12.8310000  79.6860000 174.1550000  11.9570000
  77.9290000 175.0920000  12.6090000  77.8540000 175.8780000  13.5060000
  78.1780000 175.7890000  11.2640000  78.0400000 175.8240000  10.0780000
  77.0040000 175.9900000  11.1930000  79.4750000 176.6010000  11.1730000
  80.5120000 176.2700000  11.6360000  79.8930000 176.8030000   9.7490000
  79.7630000 176.0490000   8.8270000  80.9650000 177.3080000   9.5810000
  79.2950000 177.7210000   9.2490000  79.3620000 177.9360000  11.9000000
  78.2410000 178.3540000  11.8880000  79.6380000 178.0570000  13.0570000
  79.9690000 178.8840000  11.4860000  76.4870000 174.5490000  12.6960000
  75.5620000 175.2840000  13.0600000  76.3190000 173.2400000  12.4200000
  76.8380000 172.7880000  11.4570000  75.0540000 172.5140000  12.4790000
  74.3130000 172.7900000  11.5820000  75.2590000 171.1020000  11.9550000
  74.5730000 170.2410000  11.5410000  75.6310000 170.5460000  12.9430000
  75.6040000 171.0410000  10.1820000  75.4000000 170.8050000   9.0520000
  74.4220000 172.4990000  13.8630000  73.2190000 172.2250000  14.0000000
  75.2540000 172.7770000  14.8620000  76.4100000 173.0010000  14.7820000
  74.9140000 172.7710000  16.2710000  75.0400000 173.8850000  16.6660000
  73.7190000 172.6790000  16.2040000  75.7690000 171.7680000  17.0200000
  76.7200000 171.2210000  16.4550000  75.4550000 171.5040000  18.3030000
  74.3870000 172.0970000  19.1410000  74.9200000 173.1080000  19.4840000
  73.3970000 172.5560000  18.6700000  74.2870000 171.1650000  20.2980000
  73.7690000 170.0980000  20.4350000  73.4750000 171.7740000  20.9110000
  75.6810000 170.6590000  20.4730000  76.1460000 171.5650000  21.0930000
  76.1280000 169.7480000  21.0800000  76.2400000 170.5210000  19.0590000
  77.4160000 170.5430000  19.1710000  76.1310000 169.0770000  18.5620000
  77.0400000 168.3110000  18.7900000  75.0300000 168.7010000  17.9090000
  74.0290000 169.0960000  18.3740000  74.8160000 167.3390000  17.3950000
  75.9180000 166.8990000  17.3980000  73.6130000 166.7060000  18.0960000
  73.7730000 166.7530000  19.2750000  72.5770000 167.1910000  17.8350000
  73.5230000 165.2200000  17.9420000  74.1340000 164.3900000  18.5120000
  73.3630000 164.8690000  16.8110000  72.1890000 164.5820000  18.9770000
  70.7500000 165.0420000  18.0130000  69.7750000 164.5490000  18.4620000
  70.8800000 164.7720000  16.8680000  70.6930000 166.1130000  18.5080000
  74.6230000 167.2940000  15.8660000  74.0200000 168.2050000  15.2840000
  75.1400000 166.2160000  15.2270000  76.2280000 165.8270000  15.4900000
  75.0620000 165.9600000  13.7800000  73.9740000 166.3230000  13.4550000
  76.1360000 166.7510000  13.0470000  75.8540000 166.9960000  11.9070000
  77.1520000 166.1600000  12.9190000  76.3910000 167.8380000  13.4530000
  75.1810000 164.4680000  13.4270000  75.7730000 163.6930000  14.1760000
  74.6310000 164.0740000  12.2720000  74.1470000 164.8630000  11.5260000
  74.7290000 162.6960000  11.7960000  74.5300000 161.7640000  12.4990000
  73.5410000 162.3570000  10.9160000  73.2170000 161.3110000  10.4580000
  73.5330000 163.0540000   9.9550000  72.5390000 162.6860000  11.4780000
  76.0340000 162.5300000  11.0070000  76.3120000 163.3400000  10.1090000
  76.8410000 161.5130000  11.3730000  76.8760000 161.1330000  12.4890000
  78.0740000 161.1490000  10.6870000  78.1140000 161.9950000   9.8640000
  79.2950000 161.4820000  11.5450000  79.2330000 160.9180000  12.5850000
  80.2020000 161.0340000  10.9710000  79.3700000 162.9160000  12.0280000
  79.8600000 163.9260000  11.2040000  80.8040000 163.7610000  10.5140000
  79.9300000 165.2460000  11.6470000  79.9680000 166.0770000  10.8060000
  79.5290000 165.5590000  12.9350000  79.5680000 166.8490000  13.3980000
  80.5220000 167.0950000  14.0420000  79.0750000 164.5660000  13.7800000
  78.8970000 164.9330000  14.8910000  79.0130000 163.2520000  13.3300000
  79.0150000 162.4790000  14.2250000  78.0390000 159.6330000  10.3690000
  77.3210000 158.8980000  11.0590000  78.7750000 159.1700000   9.3110000
  79.8710000 159.5820000   9.1350000  78.8380000 157.7520000   8.8990000
  78.0430000 157.2510000   9.6180000  78.5280000 157.4330000   7.4150000
  79.2560000 156.5990000   6.9710000  77.1760000 156.7890000   7.2330000
  76.8250000 156.2870000   6.2120000  76.3560000 157.5790000   7.5530000
  77.1260000 155.8490000   7.9580000  78.7470000 158.6170000   6.4920000
  77.7550000 159.2380000   6.6610000  78.7490000 158.2380000   5.3570000
  79.7940000 159.1470000   6.5220000  80.1560000 157.1400000   9.1920000
  81.1960000 157.7030000   8.8360000  80.1240000 155.9050000   9.6900000
  79.3670000 155.7400000  10.5820000  81.3480000 155.1520000   9.9060000
  82.2600000 155.8870000  10.0930000  81.1840000 154.2380000  11.0990000
  82.1310000 153.5680000  11.3510000  80.9200000 154.8100000  12.1030000
  80.2130000 153.1120000  10.9760000  79.7380000 152.7310000   9.9010000
  79.9960000 152.4910000  12.0980000  80.2510000 152.6070000  13.2530000
  79.6980000 151.3430000  12.1220000  81.7540000 154.4220000   8.5900000
  81.0080000 154.5330000   7.6070000  82.8850000 153.6720000   8.5050000
  83.9290000 153.4070000   9.5130000  84.3130000 154.2880000  10.1950000
  83.7440000 152.3490000  10.0370000  85.1150000 153.2380000   8.6960000
  86.0630000 152.5780000   9.0130000  85.7090000 154.2060000   8.3410000
  84.6380000 152.5260000   7.4970000  85.3350000 152.6840000   6.5300000
  84.7540000 151.3410000   7.5860000  83.2460000 153.0600000   7.2240000
  83.2860000 153.8030000   6.2950000  82.3310000 151.9440000   6.7400000
  82.5490000 151.4150000   5.6380000  81.3200000 151.5640000   7.5650000
  81.5410000 151.5130000   8.7280000  80.3770000 150.4890000   7.2350000
  80.6370000 149.8690000   6.2490000  80.4410000 149.3400000   8.2620000
  79.8310000 149.5520000   9.2600000  79.9620000 148.2710000   8.0210000
  81.8270000 148.8430000   8.5560000  82.4470000 149.1180000   9.7540000
  82.0260000 149.3280000  10.8370000  83.6450000 148.5600000   9.6820000
  84.6020000 148.2080000  10.2890000  83.8340000 147.9750000   8.5120000
  82.6920000 148.1650000   7.7760000  82.8660000 147.7220000   6.6910000
  78.9750000 151.0270000   7.0640000  78.0130000 150.2670000   7.1150000
  78.8690000 152.3260000   6.8130000  79.7350000 152.9490000   6.3040000
  77.5960000 152.9910000   6.5430000  76.8080000 152.3670000   5.9030000
  77.7920000 154.0560000   6.0740000  76.6770000 153.2400000   7.7250000
  75.5860000 153.8030000   7.5540000  77.1090000 152.8520000   8.9370000
  78.2630000 152.6540000   8.9050000  76.3110000 153.0700000  10.1330000
  75.3030000 152.5580000   9.7270000  76.6910000 152.1100000  11.2670000
  76.7740000 150.9530000  10.9650000  77.6470000 152.4210000  11.9020000
  75.6290000 152.0390000  12.3350000  74.5710000 151.1440000  12.2330000
  74.3520000 150.2400000  11.4840000  73.5780000 151.0860000  13.2080000
  72.9130000 150.1030000  13.2920000  73.6400000 151.9280000  14.3050000
  72.6680000 151.8840000  15.2740000  72.7570000 152.7070000  16.1170000
  74.6780000 152.8370000  14.4200000  74.6560000 153.5310000  15.3790000
  75.6620000 152.8910000  13.4350000  76.3840000 153.8160000  13.5640000
  76.3780000 154.5240000  10.5600000  77.4680000 155.0780000  10.7570000
  75.1860000 155.1400000  10.6590000  74.2570000 154.4180000  10.8090000
  75.0040000 156.5450000  11.0030000  75.9470000 157.0470000  10.4940000
  73.8230000 157.2210000  10.2630000  72.9270000 156.5680000  10.6960000
  73.7240000 158.6930000  10.6470000  72.6060000 159.0820000  10.5610000
  73.9680000 158.9820000  11.7770000  74.4850000 159.3470000  10.0040000
  73.9130000 157.0640000   8.7370000  74.3210000 157.9940000   8.1110000
  74.3840000 156.0280000   8.3540000  72.5730000 156.8280000   8.1210000
  72.5810000 156.3210000   7.0390000  72.1120000 155.8560000   8.6570000
  71.8480000 157.7180000   8.3750000  74.8700000 156.6950000  12.4900000
  73.9500000 156.1290000  13.0940000  75.7890000 157.4950000  13.0640000
  76.8590000 157.6100000  12.5880000  75.8660000 157.8250000  14.4790000
  75.0220000 157.1330000  14.9700000  77.2790000 157.5010000  15.0400000
  77.1830000 158.0680000  16.0730000  78.1740000 157.9630000  14.4110000
  77.5780000 156.0450000  15.2450000  76.8750000 155.2850000  16.1600000
  75.9190000 155.2370000  16.8620000  77.4110000 154.0760000  16.1130000
  77.3310000 153.1080000  16.7970000  78.4240000 154.0190000  15.2560000
  78.5570000 155.2790000  14.7090000  79.1910000 155.1910000  13.7150000
  75.6170000 159.3060000  14.6350000  76.4580000 160.0930000  14.2070000
  74.4910000 159.7070000  15.2370000  73.7230000 158.9150000  15.6770000
  74.2640000 161.1300000  15.5180000  74.6170000 161.8670000  14.6680000
  72.7850000 161.4460000  15.7480000  72.6660000 162.6200000  15.9140000
  72.2800000 160.7140000  16.5250000  71.8770000 161.3490000  14.5420000
  72.1530000 160.4340000  13.8400000  71.6840000 162.3120000  13.9000000
  70.4620000 161.0410000  14.9730000  70.2450000 159.9640000  15.5800000
  69.5750000 161.8910000  14.7310000  75.0470000 161.4040000  16.8030000
  74.6880000 160.8770000  17.8650000  76.1580000 162.1640000  16.6830000
  76.6260000 162.7450000  15.7690000  77.0620000 162.4460000  17.7940000
  76.6000000 161.7830000  18.6600000  78.5210000 162.0260000  17.4790000
  79.1750000 161.9460000  18.4690000  78.6220000 160.6850000  16.7790000
  78.3300000 159.8990000  17.6060000  78.0210000 160.4090000  15.7920000
  79.7470000 160.7230000  16.4210000  79.1320000 162.9940000  16.6600000
  79.6970000 163.8610000  17.2260000  76.9670000 163.8890000  18.2790000
  76.9410000 164.8300000  17.4700000  76.9310000 164.0240000  19.6280000
  77.8280000 163.3570000  20.0080000  76.8590000 165.2400000  20.4360000
  76.4610000 166.0210000  19.6400000  75.8410000 165.0330000  21.5740000
  76.2020000 164.0020000  22.0690000  74.7550000 164.7720000  21.1610000
  75.7140000 166.1340000  22.6410000  76.8080000 166.5160000  22.8910000
  74.7870000 167.2360000  22.1800000  73.7930000 166.8640000  21.6350000
  74.3820000 168.0260000  22.9590000  75.3680000 167.8330000  21.3390000
  75.1570000 165.5650000  23.9160000  74.0080000 165.2620000  23.8980000
  75.3880000 166.1780000  24.9000000  75.6410000 164.5230000  24.2410000
  78.2350000 165.5340000  21.0230000  78.8500000 164.6740000  21.6520000
  78.7130000 166.7530000  20.8090000  77.9450000 167.6290000  20.6340000
  80.0100000 167.2210000  21.2810000  80.6180000 166.2040000  21.2440000
  80.6960000 168.1200000  20.2250000  81.5220000 168.7980000  20.7470000
  81.3620000 167.3160000  19.1290000  80.7790000 166.2870000  18.9380000
  81.3130000 167.6820000  17.9990000  82.4930000 167.1150000  19.3740000
  79.7540000 169.0440000  19.6490000  79.0870000 169.5980000  20.4360000
  79.8870000 167.8610000  22.6760000  79.1000000 168.8000000  22.8560000
  80.6280000 167.3070000  23.6660000  81.6010000 166.7870000  23.2560000
  80.6570000 167.7880000  25.0520000  80.2780000 168.9050000  24.9330000
  79.8100000 166.9440000  26.0290000  80.0640000 167.3810000  27.1010000
  78.3270000 167.0420000  25.7080000  78.0100000 167.5040000  24.6610000
  77.9550000 165.9210000  25.4970000  77.7010000 167.4760000  26.6210000
  80.2620000 165.4920000  26.0660000  81.4100000 165.7330000  25.9830000
  80.2090000 164.9890000  27.1390000  79.8350000 164.8180000  25.1960000
  82.0960000 167.9590000  25.5330000  82.9550000 167.1890000  25.1150000
  82.3680000 168.9790000  26.3660000  81.7900000 169.8960000  26.8280000
  83.7170000 169.2550000  26.8710000  84.6150000 169.1660000  26.0950000
  83.8110000 170.6600000  27.4560000  83.2050000 171.0920000  28.3900000
  84.9020000 170.7510000  27.9420000  83.7700000 171.7900000  26.4530000
  84.7600000 171.9200000  25.4770000  85.8670000 171.6650000  25.8280000
  84.7660000 173.0000000  24.5880000  85.8070000 173.4400000  24.2380000
  83.8140000 174.0020000  24.7150000  83.8010000 175.0670000  23.8440000
  83.4400000 176.0880000  24.3430000  82.8600000 173.9260000  25.7190000
  82.3820000 174.8840000  26.2350000  82.8430000 172.8250000  26.5790000
  82.4530000 173.1810000  27.6450000  84.1980000 168.2640000  27.9180000
  85.3830000 167.9220000  27.9400000  83.2980000 167.8520000  28.8230000
  82.5620000 168.6520000  29.2760000  83.6020000 166.9070000  29.8920000
  84.6270000 166.3730000  29.6270000  83.8340000 167.6540000  31.2200000
  82.8500000 168.0940000  31.7250000  84.6870000 168.4890000  31.0820000
  84.4990000 166.8110000  32.3090000  83.9170000 165.7980000  32.5460000
  85.6540000 166.7010000  32.0570000  84.5500000 167.5640000  33.6550000
  83.5160000 167.9970000  34.0780000  85.1970000 168.5660000  33.5290000
  85.0030000 166.7220000  34.8350000  84.3370000 165.7740000  35.1180000
  84.9110000 167.3650000  35.8410000  86.4300000 166.2960000  34.7430000
  86.6180000 165.1150000  34.6660000  86.9950000 166.5570000  35.7670000
  87.2570000 166.7500000  34.0060000  82.4810000 165.8670000  30.0090000
  81.2980000 166.2010000  29.9360000  82.8770000 164.6020000  30.1140000
  84.0200000 164.3340000  30.2940000  81.9920000 163.4400000  30.2640000
  80.9740000 163.8760000  30.6930000  82.1360000 162.5020000  29.0790000
  81.8280000 161.4640000  29.5510000  83.2610000 162.3120000  28.7760000
  81.4300000 162.8920000  28.2040000  82.4220000 162.7480000  31.5410000
  83.4550000 163.1320000  32.0770000  81.6780000 161.7430000  32.0460000
  80.8820000 160.9390000  31.7570000  82.0720000 161.2480000  33.3310000
  83.1220000 161.6180000  33.7640000  81.1480000 161.7580000  34.4190000
  80.1360000 162.3840000  34.3870000  81.2250000 161.2410000  35.4910000
  81.7980000 163.2320000  35.2350000  82.0540000 164.0450000  36.0510000
  82.2940000 159.7790000  33.4630000  83.4700000 159.4170000  33.6080000
  81.2630000 158.9350000  33.5730000  80.1140000 159.2110000  33.6240000
  81.6030000 157.5430000  33.8590000  82.4680000 157.5090000  34.6790000
  80.5070000 156.8300000  34.5800000  80.7450000 155.7480000  35.0050000
  79.6180000 156.8810000  33.7970000  80.2140000 157.4020000  35.9210000
  80.8600000 157.0600000  36.9260000  79.1650000 158.2130000  35.9670000
  78.3300000 158.9890000  35.7100000  79.0810000 158.4840000  37.1330000
  82.0450000 156.7880000  32.6470000  81.5610000 155.6930000  32.3920000
  82.9980000 157.3610000  31.9080000  83.8870000 158.0880000  32.1940000
  83.5150000 156.7620000  30.7030000  82.9030000 155.7430000  30.6500000
  83.5260000 157.7580000  29.5320000  84.1690000 157.1480000  28.7380000
  84.2360000 158.6660000  29.8460000  82.1390000 158.2870000  29.1300000
  81.7480000 158.8840000  30.0810000  82.2220000 159.0710000  27.9170000
  83.3100000 159.3960000  27.6010000  81.6730000 160.1200000  28.0160000
  81.7700000 158.6560000  26.8930000  81.1500000 157.1590000  28.8600000
  80.8490000 156.2770000  29.5980000  81.5300000 156.5640000  27.9030000
  80.1160000 157.6830000  28.6540000  84.8530000 156.1140000  30.9230000
  85.6330000 156.5460000  31.7940000  85.0560000 155.0050000  30.1980000
  84.3220000 154.3860000  29.5170000  86.2540000 154.1970000  30.1560000
  87.1200000 154.6930000  30.8100000  85.9920000 152.8000000  30.6740000
  87.0440000 152.3040000  30.3940000  85.0940000 152.1040000  30.3350000
  85.9860000 152.5920000  32.1630000  86.0220000 153.5150000  32.9960000
  85.9460000 151.3380000  32.5220000  85.3540000 150.5790000  33.2150000
  86.9450000 150.6950000  32.3990000  86.5790000 154.0990000  28.6970000
  85.6710000 153.9200000  27.8790000  87.8670000 154.2030000  28.3590000
  88.7340000 154.1520000  29.1710000  88.3570000 154.1450000  26.9900000
  87.3930000 154.0190000  26.3240000  89.3890000 155.2730000  26.7370000
  90.0150000 154.9990000  25.8280000  90.2730000 155.2020000  27.5160000
  88.9630000 156.7040000  27.0650000  88.7260000 156.6980000  28.2370000
  90.0730000 157.6120000  26.9250000  90.7950000 157.5450000  27.8890000
  89.5480000 158.6050000  27.3060000  90.9830000 157.6870000  26.1540000
  87.8280000 157.1660000  26.1670000  87.0790000 157.5270000  27.0120000
  88.3980000 157.7840000  25.3260000  87.2110000 156.4270000  25.4750000
  89.0160000 152.8080000  26.7860000  89.4240000 152.1770000  27.7660000
  89.1250000 152.3810000  25.5180000  89.2330000 153.1600000  24.6320000
  89.7850000 151.1490000  25.1200000  90.5300000 150.8350000  25.9940000
  88.7840000 150.0060000  25.0230000  88.2460000 149.7280000  26.0570000
  89.1710000 148.9490000  24.6430000  87.8170000 150.2570000  24.0190000
  87.5780000 151.3770000  23.8140000  90.4980000 151.3380000  23.7970000
  89.9800000 151.9890000  22.8740000  91.6920000 150.7730000  23.7160000
  92.0880000 149.9800000  24.5090000  92.5190000 150.8940000  22.5260000
  91.9360000 150.9630000  21.5040000  92.9650000 149.8000000  22.4670000
  93.2190000 152.2400000  22.4740000  93.0030000 153.1080000  23.3350000
  94.0760000 152.4160000  21.4660000  94.1820000 151.6070000  20.6030000
  94.8650000 153.6340000  21.3430000  94.7540000 154.2300000  22.3610000
  96.3380000 153.2790000  20.9840000  96.3750000 152.9040000  19.8450000
  97.1030000 154.1940000  20.9530000  97.0240000 152.2450000  21.9370000
  96.7040000 151.1240000  21.6610000  98.1870000 152.2420000  21.6700000
  96.9400000 152.5870000  23.4450000  97.8310000 153.3850000  23.5400000
  96.1640000 153.1810000  24.1340000  97.3300000 151.4870000  24.3480000
  98.4640000 151.4360000  24.7050000  96.4860000 150.6530000  24.9630000
  95.1760000 150.7580000  24.7710000  94.5880000 151.3550000  25.6060000
  94.8130000 149.6990000  24.3600000  96.9480000 149.7110000  25.7740000
  96.7480000 149.6800000  26.9430000  97.6320000 148.7830000  25.4840000
  94.2020000 154.6110000  20.3590000  93.4370000 154.1330000  19.5140000
  94.3990000 155.9610000  20.4390000  95.2310000 156.7470000  21.3670000
  96.3490000 156.7880000  20.9350000  95.3920000 156.4370000  22.5110000
  94.6770000 158.1320000  21.2230000  95.1420000 159.2100000  21.2660000
  94.3700000 158.1950000  22.3760000  94.2200000 158.2500000  19.8430000
  95.2120000 158.4760000  19.2000000  93.4120000 159.0940000  19.6870000
  93.7230000 156.8490000  19.4720000  92.6200000 156.4320000  19.5860000
  94.0290000 156.5170000  18.0140000  95.0650000 155.8970000  17.7060000
  93.0700000 156.8670000  17.1350000  92.2620000 157.6590000  17.4680000
  93.1370000 156.6710000  15.6900000  94.2820000 156.4340000  15.4480000
  92.3240000 155.4610000  15.2810000  92.8360000 154.7950000  16.1280000
  91.3980000 154.7290000  15.2870000  92.3420000 155.3450000  13.8720000
  93.1450000 154.5700000  13.4880000  92.6160000 157.9020000  14.9830000
  91.7490000 158.5890000  15.5210000  93.1730000 158.2140000  13.8050000
  94.3010000 157.8630000  13.6610000  92.7500000 159.3740000  13.0010000
  91.8830000 160.0850000  13.4000000  93.9090000 160.2690000  12.6060000
  93.6060000 160.9470000  11.6640000  94.4630000 161.0420000  13.7730000
  94.7810000 160.3790000  14.7080000  95.5680000 161.4210000  13.5050000
  93.8870000 162.0850000  13.7570000  94.9280000 159.4820000  11.9870000
  95.7370000 160.0770000  11.3580000  92.0170000 158.8910000  11.7890000
  91.4240000 159.6880000  11.0630000  92.0260000 157.5710000  11.6060000
  92.9450000 156.9690000  12.0310000  91.3910000 156.8810000  10.4980000
  91.8710000 157.2540000   9.4730000  91.7320000 155.3640000  10.5170000
  91.3390000 154.8430000   9.5110000  91.1730000 154.6820000  11.3110000
  93.2200000 155.0130000  10.5340000  93.3040000 153.8170000  10.6130000
  94.1540000 155.2780000  11.2200000  94.0140000 155.2600000   9.2630000
  94.3350000 156.4360000   8.9680000  94.3670000 154.2620000   8.5920000
  89.8740000 157.1260000  10.4690000  89.1550000 156.6820000  11.3600000
  89.4150000 157.8540000   9.4410000  90.0560000 158.0920000   8.4650000
  88.0190000 158.1760000   9.1600000  87.9780000 158.6840000   8.0800000
  87.1790000 156.8820000   8.9960000  87.7870000 156.1020000   8.3070000
  87.0330000 156.3320000  10.0320000  85.9680000 157.0010000   8.1160000
  84.6830000 156.9400000   8.6400000  84.5360000 157.5820000   9.6150000
  83.8650000 157.0380000   7.6060000  82.8250000 156.8030000   7.1030000
  84.5380000 157.1600000   6.4650000  85.8820000 157.1260000   6.7740000
  86.6540000 157.0760000   5.8760000  87.4420000 159.1190000  10.2010000
  86.2370000 159.0960000  10.4340000  88.2860000 159.9880000  10.8010000
  89.0400000 160.3990000   9.9800000  87.8040000 160.9320000  11.8220000
  87.4590000 160.1350000  12.6320000  88.9460000 161.6540000  12.5220000
  89.4580000 162.1870000  11.6460000  89.9370000 161.3490000  13.0760000
  88.4420000 162.5380000  13.5090000  89.0470000 163.5430000  13.5520000
  86.8040000 161.9180000  11.2710000  86.9440000 162.3940000  10.1400000
  85.7520000 162.1710000  12.0530000  85.8520000 162.1220000  13.2310000
  84.6960000 163.0990000  11.6700000  84.5890000 163.2610000  10.4980000
  83.3590000 162.7120000  12.3150000  82.5540000 163.5660000  12.1280000
  83.4620000 162.7540000  13.5000000  82.8660000 161.3330000  11.9730000
  82.9040000 160.7260000  10.7530000  83.6570000 160.9700000   9.8770000
  82.3090000 159.4900000  10.8180000  82.7750000 158.7320000  10.0440000
  81.7830000 159.3140000  12.0720000  81.0970000 158.2240000  12.6240000
  80.8900000 157.2070000  12.0670000  80.7430000 158.2990000  13.9490000
  80.6350000 157.2490000  14.4830000  81.0790000 159.4070000  14.7320000
  81.4110000 159.2790000  15.8590000  81.7740000 160.4820000  14.1980000
  81.9610000 161.4360000  14.8720000  82.1320000 160.4490000  12.8350000
  85.0710000 164.5480000  11.9600000  84.4340000 165.4300000  11.4150000
  86.1090000 164.7960000  12.7920000  86.6870000 164.0770000  13.5260000
  86.6070000 166.1350000  13.1680000  85.8640000 166.8670000  12.5990000
  86.3980000 166.4280000  14.6750000  86.6800000 167.5600000  14.8940000
  87.1090000 165.7440000  15.3310000  84.9910000 166.1300000  15.1250000
  83.9670000 167.0350000  14.8960000  84.2350000 168.1600000  14.6700000
  82.6570000 166.7320000  15.2590000  81.9530000 167.6560000  15.4880000
  82.3640000 165.5170000  15.8280000  81.2770000 165.3270000  16.2530000
  83.3570000 164.5980000  16.0300000  82.8930000 163.6270000  16.5240000
  84.6650000 164.8920000  15.6590000  85.3990000 164.0090000  15.9270000
  88.0750000 166.1690000  12.8000000  88.9010000 165.5910000  13.5170000
  88.4050000 166.7560000  11.6210000  87.5400000 167.4640000  10.6550000
  87.5130000 168.5450000  11.1300000  86.4540000 167.1190000  10.2930000
  88.2800000 167.3080000   9.3750000  88.1150000 168.1060000   8.5120000
  88.0450000 166.2790000   8.8210000  89.7270000 167.3640000   9.7590000
  90.3720000 168.3560000   9.5870000  90.3500000 166.6720000   8.9990000
  89.8040000 166.7460000  11.1630000  90.0880000 165.6170000  10.8750000
  90.7400000 167.4960000  12.1000000  90.4950000 168.6570000  12.4500000
  91.7780000 166.8000000  12.5270000  92.1920000 165.9110000  11.8530000
  92.7460000 167.3460000  13.4580000  93.7700000 167.1460000  12.8930000
  92.6470000 168.5200000  13.5600000  92.6310000 166.6530000  14.7910000
  93.5110000 166.8100000  15.6410000  91.5500000 165.8540000  14.9660000
  90.7390000 165.7370000  14.1290000  91.2780000 165.0780000  16.1740000
  92.1750000 165.4280000  16.8630000  89.9040000 165.4240000  16.7730000
  89.0200000 165.0790000  16.0640000  89.8300000 164.6430000  17.6600000
  89.8620000 166.8280000  17.3120000  90.3150000 167.1150000  18.5950000
  90.4970000 166.3420000  19.4680000  90.3490000 168.4240000  19.0740000
  90.5240000 168.5110000  20.2380000  89.9350000 169.4650000  18.2600000
  89.9700000 170.7640000  18.7030000  91.0230000 171.2860000  18.6390000
  89.4700000 169.1990000  16.9840000  88.7420000 170.0200000  16.5490000
  89.4420000 167.8880000  16.5170000  89.4780000 168.0110000  15.3380000
  91.3660000 163.5970000  15.9290000  90.9900000 163.1080000  14.8580000
  91.8280000 162.8770000  16.9570000  92.5840000 163.4230000  17.6610000
  91.9400000 161.4310000  16.9640000  91.8240000 161.0900000  15.8340000
  93.3260000 161.0170000  17.4080000  94.2060000 161.6260000  16.8810000
  93.7230000 159.9120000  17.1880000  93.6470000 161.2010000  18.5350000
  90.9110000 160.8860000  17.9170000  90.7300000 161.4190000  19.0140000
  90.2390000 159.8240000  17.5030000  90.3470000 159.0640000  16.6280000
  89.2040000 159.1700000  18.3050000  89.0240000 159.9220000  19.1990000
  87.9610000 158.8720000  17.4610000  87.2390000 159.0700000  18.3840000
  87.2430000 159.4910000  16.7630000  88.2730000 158.0830000  16.2250000
  88.5880000 158.5750000  14.9900000  88.8370000 159.7050000  14.7450000
  88.8650000 157.5450000  14.1310000  89.4000000 157.8960000  13.1400000
  88.7410000 156.3570000  14.8050000  88.9210000 155.0460000  14.3680000
  89.3890000 154.6490000  13.3550000  88.8160000 154.0460000  15.3100000
  89.0890000 152.9060000  15.1080000  88.4760000 154.3220000  16.6370000
  88.8360000 153.4200000  17.3230000  88.2630000 155.6170000  17.0610000
  88.1950000 155.5670000  18.2360000  88.4100000 156.6640000  16.1390000
  89.6820000 157.8910000  18.9930000  90.5690000 157.1750000  18.5090000
  89.0680000 157.6120000  20.1360000  88.2930000 158.2900000  20.7140000
  89.3290000 156.4330000  20.9430000  89.7280000 155.5290000  20.2770000
  90.5450000 156.6230000  21.9070000  91.3650000 155.7800000  21.7170000
  91.0510000 158.0750000  22.0080000  90.3920000 159.0620000  21.9080000
  91.6360000 158.3350000  23.0250000  91.8940000 158.2540000  21.1930000
  90.2180000 156.1210000  23.2000000  91.0210000 156.3220000  24.0240000
  87.9660000 156.0030000  21.5540000  87.2520000 156.8440000  22.1000000
  87.5850000 154.7180000  21.3930000  88.4010000 153.9300000  21.0420000
  86.3110000 154.1840000  21.8820000  85.4520000 154.6250000  21.2000000
  86.1560000 152.6790000  21.5340000  87.1340000 152.1330000  21.9250000
  84.9010000 152.0840000  22.1340000  83.9660000 152.1330000  21.3890000
  85.0390000 150.8880000  22.1110000  84.7180000 152.1990000  23.2990000
  86.1860000 152.4300000  20.0340000  86.5260000 153.3550000  19.3800000
  85.1700000 152.0950000  19.5520000  86.9250000 151.1720000  19.7060000
  87.4540000 150.3750000  20.4300000  86.2970000 150.3660000  19.0700000
  87.8580000 151.3450000  18.9720000  86.1230000 154.4380000  23.3820000
  87.0270000 154.1530000  24.1820000  84.9260000 154.9810000  23.7410000
  84.1480000 155.2950000  22.9250000  84.4840000 155.2790000  25.1050000
  85.3280000 154.7510000  25.7490000  84.2000000 156.7570000  25.2590000
  84.6290000 157.6150000  24.5640000  83.0280000 156.9720000  25.2660000
  84.6240000 156.9140000  26.3570000  83.2380000 154.4580000  25.4080000
  82.3600000 154.3000000  24.5500000  83.2030000 153.8620000  26.5950000
  83.7790000 154.3800000  27.4730000  82.0940000 153.0280000  27.0310000
  81.1350000 153.4720000  26.5110000  82.5040000 151.5630000  27.0410000
  83.4610000 151.4230000  27.7440000  81.7790000 150.7180000  27.4580000
  83.0050000 150.9840000  25.7410000  82.0650000 151.0440000  25.0430000
  83.8870000 151.0690000  24.9480000  83.7070000 149.7100000  26.0820000
  84.9270000 149.7150000  26.2990000  82.9320000 148.6260000  26.2890000
  83.3210000 147.8590000  27.1080000  82.4680000 147.9210000  25.4470000
  81.7230000 153.3720000  28.4550000  82.5830000 153.8220000  29.2260000
  80.4680000 153.0660000  28.8350000  80.2590000 151.9250000  28.6530000
  79.9690000 153.2420000  30.1820000  79.8630000 154.4030000  30.4100000
  78.4890000 152.8970000  30.2510000  77.5740000 153.6480000  30.2590000
  78.3180000 152.6630000  29.1060000  77.8010000 152.9530000  31.9210000
  77.7620000 153.5490000  32.9280000  80.7960000 152.3740000  31.1420000
  80.9900000 151.1820000  30.8740000  81.3370000 152.9940000  32.2260000
  80.5660000 153.8240000  32.5830000  82.1610000 152.3280000  33.2530000
  82.9320000 151.7340000  32.5660000  82.5980000 153.3230000  34.3410000
  83.2950000 154.1010000  33.7610000  81.7120000 153.6790000  35.0650000
  83.5370000 152.7610000  35.4140000  84.3120000 152.0130000  34.9490000
  83.1340000 152.0750000  36.3010000  84.1780000 153.8610000  36.2330000
  83.4630000 154.3330000  37.0670000  85.0330000 153.3190000  36.8820000
  84.8930000 154.7970000  35.3610000  85.9170000 154.4210000  34.9260000
  85.1530000 156.0580000  35.6770000  84.7940000 156.5400000  36.8660000
  85.6130000 156.5150000  37.7310000  83.9680000 157.2640000  37.3190000
  85.7710000 156.8520000  34.8070000  85.5780000 158.0010000  34.5930000
  86.9640000 156.8250000  34.7620000  81.3780000 151.2070000  33.9020000
  81.9400000 150.1490000  34.1860000  80.0820000 151.4260000  34.1000000
  79.6990000 152.5400000  34.0880000  79.2330000 150.4550000  34.7600000
  79.8340000 149.8460000  35.5950000  77.9770000 151.1150000  35.3770000
  77.2200000 151.6850000  34.6690000  77.1760000 150.1040000  36.1590000
  77.1030000 150.1140000  37.3590000  77.4200000 148.9300000  36.0870000
  75.9990000 150.0550000  35.9310000  78.3360000 152.3620000  36.2170000
  77.3350000 152.5870000  36.8410000  78.8210000 153.4060000  35.9770000
  79.2480000 152.1550000  37.4190000  78.7870000 151.6820000  38.4240000
  79.6200000 153.1810000  37.9230000  80.2690000 151.5320000  37.3930000
  78.8690000 149.2560000  33.8820000  79.2110000 148.1380000  34.2510000
  78.1370000 149.4760000  32.7750000  78.0670000 150.5300000  32.2440000
  77.6140000 148.3930000  31.9410000  77.6040000 147.3370000  32.5010000
  76.1710000 148.6910000  31.5880000  75.6660000 147.6920000  31.1830000
  75.3580000 148.9540000  32.4100000  76.0060000 150.0980000  30.4880000
  76.6180000 150.9500000  29.9690000  78.4060000 148.1000000  30.6980000
  78.0740000 147.1480000  30.0050000  79.3620000 148.9440000  30.3580000
  80.1460000 149.0000000  31.2260000  80.1740000 148.7460000  29.1610000
  81.2950000 149.0890000  29.3590000  80.3530000 147.5770000  28.9790000
  79.5470000 149.1880000  27.8460000  80.1080000 148.9290000  26.7720000
  78.4160000 149.8990000  27.9250000  78.2110000 150.1770000  29.0490000
  77.6900000 150.3990000  26.7700000  77.4140000 149.3750000  26.2220000
  76.4470000 151.1460000  27.2520000  75.8860000 150.2960000  27.8500000
  76.6150000 152.3120000  27.4390000  75.3840000 151.3370000  26.2060000
  75.1320000 150.4590000  25.3610000  74.7010000 152.4690000  26.2830000
  74.1560000 153.1940000  27.0270000  74.3460000 152.6090000  25.1640000
  78.5580000 151.3340000  25.9470000  79.1880000 152.2010000  26.5360000
  78.5970000 151.1730000  24.5920000  78.0240000 150.3080000  24.0100000
  79.3790000 152.0810000  23.7450000  80.4890000 151.9060000  24.1240000
  79.6430000 151.5260000  22.3430000  78.6840000 151.0920000  21.7980000
  80.3870000 150.5890000  22.2620000  80.3480000 152.4960000  21.4350000
  79.7550000 152.9560000  20.2600000  78.7590000 152.6090000  19.7150000
  80.6380000 153.7830000  19.7150000  80.3290000 154.1830000  18.6520000
  81.7240000 153.9160000  20.4800000  81.5460000 153.1130000  21.5870000
  82.2940000 153.2160000  22.4840000  78.6930000 153.4390000  23.7110000
  77.5700000 153.5680000  23.2160000  79.3460000 154.4270000  24.3160000
  80.4380000 154.2600000  24.7080000  78.8050000 155.7670000  24.4790000
  77.6330000 155.7410000  24.3050000  79.1830000 156.3030000  25.8470000
  80.2710000 156.5800000  25.5020000  79.0580000 157.2530000  26.5430000
  78.6230000 155.4750000  26.9810000  78.7620000 154.3190000  26.7850000
  78.6050000 155.6030000  28.1550000  76.8360000 155.4550000  27.0760000
  76.4740000 157.1510000  27.2390000  77.2940000 157.9900000  27.2990000
  75.8590000 157.3690000  26.2460000  75.8800000 157.0380000  28.2560000
  79.2360000 156.7310000  23.4040000  78.5790000 157.7480000  23.1750000
  80.3210000 156.4080000  22.7480000  81.2320000 155.8810000  23.2840000
  80.8550000 157.2500000  21.7080000  80.5950000 158.2950000  21.2100000
  80.4760000 156.5070000  20.8890000  82.3520000 157.1810000  21.7290000
  82.9230000 156.0910000  21.8270000  82.9910000 158.3420000  21.6330000
  82.4970000 159.0930000  22.3980000  84.4410000 158.4600000  21.5670000
  84.8940000 157.4550000  22.0010000  84.8990000 158.5690000  20.0960000
  86.0830000 158.5210000  20.0380000  84.5410000 159.5750000  19.5830000
  84.4270000 157.4540000  19.2160000  85.0870000 156.2970000  18.9320000
  86.2250000 156.0340000  19.0840000  84.3150000 155.5000000  18.1220000
  84.4580000 154.3840000  17.7490000  83.1270000 156.1350000  17.8700000
  82.0160000 155.7240000  17.1170000  82.0200000 154.6120000  16.7100000
  80.9110000 156.5550000  17.1050000  79.9280000 155.9760000  16.8040000
  80.9190000 157.7900000  17.7750000  80.0550000 158.5860000  17.8120000
  82.0360000 158.2150000  18.4860000  82.1210000 159.3720000  18.7050000
  83.1630000 157.3720000  18.5510000  84.9620000 159.6790000  22.2990000
  84.2250000 160.6410000  22.5570000  86.2650000 159.6400000  22.6020000
  86.7640000 158.6260000  22.9390000  86.9890000 160.7560000  23.1750000
  86.1730000 161.4960000  23.6160000  87.8950000 160.3450000  24.3410000
  88.8570000 159.7500000  23.9730000  87.1780000 159.6860000  25.0340000
  88.5110000 161.5610000  25.0290000  87.6430000 161.9900000  25.7330000
  88.8490000 162.3200000  24.1760000  89.6370000 161.2160000  25.9750000
  90.6140000 160.8980000  25.3890000  89.4780000 160.5150000  26.9090000
  90.0460000 162.4320000  26.7680000  89.5150000 163.2170000  26.0590000
  90.6270000 163.4420000  27.0690000  90.9450000 162.0880000  27.9080000
  90.2960000 161.5330000  28.7520000  91.7200000 162.5450000  28.7100000
  91.8050000 161.4130000  27.4070000  87.8320000 161.2550000  22.0230000
  88.5970000 160.4840000  21.4060000  87.6750000 162.5350000  21.7130000
  87.4120000 163.3910000  22.4660000  88.4680000 163.1210000  20.6590000
  88.7430000 162.2330000  19.9190000  87.6140000 163.9310000  19.7110000
  86.8660000 164.5650000  20.3510000  88.3180000 164.7410000  19.1990000
  86.6980000 163.0900000  18.8700000  87.1270000 162.5760000  17.6490000
  88.2110000 162.5810000  17.1720000  86.2650000 161.8120000  16.8550000
  86.6300000 161.6350000  15.7440000  84.9890000 161.5310000  17.2970000
  84.1070000 161.0620000  16.6620000  84.5520000 162.0160000  18.5130000
  83.4000000 161.8220000  18.6500000  85.4050000 162.8000000  19.2970000
  85.0720000 163.1420000  20.3760000  89.5840000 163.9190000  21.2730000
  89.3630000 164.7000000  22.2020000  90.7920000 163.6550000  20.8060000
  91.1420000 162.6680000  20.2710000  92.0070000 164.2600000  21.3260000
  91.8570000 165.0900000  22.1600000  92.8270000 163.1920000  22.0750000
  93.9270000 163.5870000  22.3160000  92.2090000 162.8170000  23.4200000
  92.8000000 163.3310000  24.3270000  92.5350000 161.6820000  23.6210000
  91.0420000 162.9640000  23.5640000  92.9490000 162.0130000  21.2600000
  94.0640000 161.6540000  21.0910000  92.7750000 164.8730000  20.1760000
  93.0020000 164.1930000  19.1750000  93.1680000 166.1550000  20.3070000
  93.8310000 166.1310000  21.2900000  93.9000000 166.8970000  19.2800000
  93.1540000 166.9230000  18.3560000  94.0880000 168.3370000  19.7120000
  94.6900000 168.3270000  20.7310000  94.7720000 168.9100000  18.9330000
  93.0970000 168.9910000  19.7920000  95.2460000 166.2700000  18.9330000
  95.9390000 165.7630000  19.8170000  95.6070000 166.3000000  17.6360000
  95.0470000 167.1150000  16.9890000  96.8710000 165.7520000  17.1270000
  97.4480000 164.9830000  17.8360000  96.6740000 165.0420000  15.7820000
  97.6580000 164.8520000  15.1280000  95.9560000 163.7040000  15.9320000
  96.6730000 162.8540000  15.4910000  94.9950000 163.8100000  15.2320000
  95.8430000 163.2660000  17.0300000  95.9530000 165.9000000  14.8920000
  96.2330000 167.0340000  14.9650000  97.9810000 166.8120000  17.1000000
  99.1440000 166.4680000  16.8950000  97.6240000 168.0830000  17.3350000
  96.8250000 168.2680000  18.1810000  98.5670000 169.1950000  17.3980000
  99.6330000 168.6760000  17.5350000  98.4720000 170.0840000  16.1510000
  99.4740000 170.7240000  16.1910000  97.6720000 170.9380000  16.0290000
  98.9220000 169.3980000  14.8580000  99.5370000 168.4950000  15.3360000
  99.8450000 169.4770000  14.1040000  98.0480000 169.8000000  13.6560000
  97.9410000 170.9880000  13.6970000  98.5070000 169.7440000  12.5450000
  96.7200000 169.0590000  13.5980000  96.0110000 169.0660000  14.5340000
  97.1050000 168.0980000  13.0280000  95.7760000 169.6520000  12.6070000
  94.9780000 170.5160000  12.8260000  96.3290000 170.2620000  11.7290000
  95.2750000 168.8390000  11.8840000  98.3330000 170.0120000  18.6730000
  97.1920000 170.3270000  19.0320000  99.4370000 170.3340000  19.3560000
 100.1380000 169.3890000  19.5370000  99.5340000 171.0980000  20.6080000
  99.1730000 170.5270000  21.5880000 101.0240000 171.3060000  20.9360000
 101.5420000 170.3310000  21.4010000 101.1300000 171.9920000  21.9060000
 101.8260000 171.8600000  19.7390000 101.5580000 173.0270000  19.7250000
 101.7060000 171.2890000  18.7010000 103.3280000 171.9990000  19.9860000
 103.8370000 170.9910000  20.3850000 103.6100000 172.7430000  20.8800000
 104.0610000 172.5390000  18.7740000 103.8860000 173.6870000  18.4880000
 105.2170000 172.6160000  19.0780000 103.9920000 171.6170000  17.6040000
 103.7930000 170.4450000  17.6360000 103.3890000 172.0190000  16.6540000
 105.0780000 171.5380000  17.0950000  98.7810000 172.4600000  20.6340000
  98.3210000 172.8870000  21.6940000  98.6710000 173.1250000  19.4720000
  99.3490000 172.7770000  18.5680000  98.0750000 174.4560000  19.2880000
  98.2110000 175.1970000  20.2150000  98.7660000 175.1600000  18.1020000
  99.8300000 175.6330000  18.3850000  98.2520000 176.1430000  17.6520000
  98.9320000 174.2930000  16.8640000  97.9220000 173.6990000  16.4090000
 100.0700000 174.2140000  16.3430000  96.5550000 174.4950000  19.0940000
  95.9820000 175.5850000  18.9880000  95.9120000 173.3160000  19.0260000
  96.2190000 172.6120000  19.9260000  94.4770000 173.1780000  18.7780000
  94.3500000 173.9150000  17.8480000  94.1620000 171.8000000  18.2100000
  94.4180000 171.0780000  19.1090000  93.0120000 171.8480000  17.9080000
  94.8930000 171.4770000  16.9360000  94.8710000 172.1830000  15.9720000
  96.0370000 171.2790000  17.1460000  94.2970000 169.9260000  16.2440000
  92.6190000 170.4490000  15.7210000  92.4320000 171.6170000  15.6930000
  92.5130000 170.3110000  14.5430000  91.9770000 169.7410000  16.4180000
  93.6180000 173.3960000  20.0000000  93.9490000 172.9120000  21.0800000
  92.4750000 174.0770000  19.8050000  92.0170000 174.2150000  18.7430000
  91.4680000 174.3480000  20.8310000  91.8990000 173.8010000  21.7970000
  91.4300000 175.8270000  21.1760000  92.3760000 175.7840000  21.9170000
  91.8500000 176.8020000  20.6310000  90.4020000 176.0650000  22.1230000
  90.7800000 176.4310000  23.1860000  90.0780000 173.8830000  20.3490000
  89.6310000 174.3490000  19.2990000  89.3720000 172.9740000  21.0660000
  88.0330000 172.5430000  20.6170000  87.1980000 173.3790000  20.5740000
  88.0850000 172.0640000  19.5270000  87.5880000 171.5600000  21.6650000
  86.4790000 171.7350000  22.0330000  87.8400000 170.5030000  21.1670000
  88.4060000 171.8210000  22.8720000  88.1650000 170.8830000  23.5460000
  88.2000000 172.6340000  23.7250000  89.7460000 172.3370000  22.3390000
  90.0630000 173.1950000  23.0970000  90.8090000 171.2560000  22.1940000
  90.9310000 170.6340000  21.1510000  91.5960000 171.0450000  23.2300000
  91.4660000 171.6010000  24.2700000  92.6410000 170.0310000  23.1610000
  93.1230000 170.1860000  22.0890000  93.7420000 170.3560000  24.2000000
  94.0400000 171.5030000  24.2590000  93.3930000 169.9780000  25.2710000
  95.1230000 169.7030000  23.9780000  95.2270000 168.6070000  24.4470000
  95.8750000 170.2950000  24.6910000  95.7380000 169.8470000  22.6040000
  95.5150000 170.8180000  21.8640000  96.5370000 168.8570000  22.2310000
  97.7090000 168.9830000  22.3770000  96.5120000 167.6840000  22.4520000
  92.0380000 168.5740000  23.2510000  92.6080000 167.6140000  22.7180000
  90.8440000 168.4560000  23.8590000  90.5910000 169.2630000  24.6920000
  90.0320000 167.2380000  23.9830000  90.1840000 166.8560000  22.8730000
  90.4530000 166.3400000  25.1810000  91.6380000 166.2240000  25.2030000
  89.9570000 165.2780000  25.0000000  90.1490000 166.9350000  26.5680000
  90.7280000 167.9440000  26.8260000  89.0090000 167.2670000  26.7000000
  90.3730000 165.9860000  27.7490000  89.9570000 166.7050000  28.6220000
  89.4940000 165.1880000  27.8540000  91.7940000 165.9380000  28.2810000
  92.1880000 166.9840000  28.6750000  92.6420000 165.5360000  27.5460000
  91.9110000 165.0660000  29.4880000  91.9510000 165.8960000  30.3540000
  93.0070000 164.6100000  29.6670000  91.1760000 164.3240000  30.0780000
  88.5450000 167.6240000  24.0900000  88.2030000 168.7330000  24.5380000
  87.6730000 166.7080000  23.6500000  87.9820000 165.7970000  22.9750000
  86.2190000 166.7930000  23.7560000  86.1800000 166.9440000  24.9390000
  85.6000000 167.7460000  22.7140000  84.9040000 168.1940000  23.5570000
  86.2930000 168.6680000  22.4990000  85.6880000 167.3010000  21.2770000
  86.7940000 167.6220000  20.4990000  87.8540000 167.9610000  20.9000000
  86.8660000 167.2210000  19.1610000  87.5200000 167.9120000  18.4630000
  85.8440000 166.4820000  18.6050000  86.1360000 165.9530000  17.5920000
  84.7390000 166.1600000  19.3580000  83.9830000 165.3610000  18.9170000
  84.6570000 166.5710000  20.6920000  83.6630000 166.3890000  21.3060000
  85.6860000 165.3720000  23.6560000  86.4780000 164.4340000  23.4750000
  84.3620000 165.2020000  23.7550000  83.8580000 166.2260000  23.9950000
  83.7440000 163.8830000  23.6880000  84.5830000 163.0660000  23.5220000
  83.1580000 163.4810000  25.0460000  82.6860000 162.4090000  24.8710000
  82.3750000 164.0560000  25.7270000  84.1540000 163.3890000  26.1510000
  84.6020000 164.4060000  26.9430000  84.6620000 165.5830000  26.8570000
  85.4880000 163.9250000  27.8750000  86.3120000 164.4750000  28.5290000
  85.6250000 162.5710000  27.6960000  86.3980000 161.6360000  28.3940000
  87.0130000 161.9490000  29.3610000  86.3170000 160.3260000  28.0000000
  86.8650000 159.6690000  28.8270000  85.5020000 159.9330000  26.9380000
  85.3700000 158.7720000  27.0840000  84.7450000 160.8560000  26.2340000
  84.0960000 160.4410000  25.3390000  84.7840000 162.2010000  26.6260000
  82.6580000 163.8580000  22.6530000  81.8170000 164.7570000  22.6110000
  82.6690000 162.8120000  21.8480000  83.6060000 162.2520000  21.4080000
  81.6700000 162.6020000  20.8130000  81.3120000 163.6910000  20.4860000
  81.6810000 162.1280000  19.7210000  80.7060000 161.5390000  21.2730000
  80.9780000 160.3540000  21.0890000  79.6050000 161.9400000  21.9200000
  79.6270000 163.0550000  22.3010000  78.6530000 160.9700000  22.4570000
  79.3380000 160.0220000  22.6480000  78.1430000 161.3960000  23.8620000
  77.4180000 162.3150000  23.6830000  77.5150000 160.4110000  24.1270000
  79.1880000 161.8390000  24.9220000  79.9500000 162.6190000  24.4740000
  78.5240000 162.3030000  26.1410000  78.0440000 163.3230000  25.7670000
  78.9340000 162.4530000  27.2180000  77.6300000 161.5220000  26.1780000
  80.1490000 160.7260000  25.2960000  80.9890000 160.3130000  24.5570000
  80.8010000 161.1260000  26.2080000  79.5750000 159.7200000  25.5790000
  77.4980000 160.6790000  21.5000000  76.8820000 161.6140000  21.0050000
  77.1970000 159.3930000  21.2440000  77.9090000 158.5610000  21.6560000
  76.1150000 158.9920000  20.3370000  75.9810000 159.5510000  19.2980000
  76.3880000 157.6190000  19.7240000  75.5090000 157.1510000  19.0710000
  77.6690000 157.5970000  18.9220000  77.4310000 157.2310000  17.8220000
  78.3090000 156.6270000  19.2150000  78.4040000 158.4720000  19.2170000
  76.4520000 156.6360000  20.7560000  77.5230000 156.3870000  21.1670000
  74.7750000 159.0830000  21.0510000  74.5980000 158.4480000  22.1010000
  73.8270000 159.8680000  20.4850000  74.2500000 160.9560000  20.2730000
  72.5280000 160.1080000  21.1250000  72.7470000 160.5840000  22.1900000
  71.6830000 161.1710000  20.4110000  72.2630000 162.2140000  20.4130000
  70.8400000 161.4040000  21.2250000  71.1940000 160.7810000  19.0440000
  72.2670000 160.8020000  18.5300000  70.8800000 159.6470000  18.9190000
  69.9110000 161.4990000  18.6830000  69.6640000 161.7030000  17.5360000
  69.9600000 162.5710000  19.1910000  68.7420000 160.9110000  19.3290000
  68.6820000 160.9380000  20.5100000  68.0840000 159.8540000  18.8640000
  68.5040000 159.2280000  17.7700000  67.9360000 159.2600000  16.7240000
  68.9260000 158.1170000  17.7470000  67.0180000 159.3980000  19.5040000
  66.1500000 160.0960000  19.8770000  67.1700000 158.2930000  19.9150000
  71.6900000 158.8450000  21.3880000  70.8220000 158.8780000  22.2680000
  71.9600000 157.7410000  20.6950000  72.3720000 157.9350000  19.6110000
  71.2240000 156.5090000  20.9590000  70.0700000 156.7940000  21.0120000
  71.3930000 155.5160000  19.8130000  70.4200000 155.8030000  19.1980000
  71.2530000 154.3510000  19.6080000  72.7480000 155.1920000  19.5370000
  73.2230000 155.8040000  18.6790000  71.6580000 155.8820000  22.2860000
  70.9100000 155.0870000  22.8420000  72.8540000 156.2530000  22.8000000
  73.5580000 156.4150000  21.8760000  73.4440000 155.6830000  24.0180000
  72.9990000 154.5740000  24.0270000  74.9550000 155.6820000  23.8840000
  75.4620000 156.7020000  24.1660000  75.2780000 155.4140000  22.7630000
  75.3510000 154.6940000  24.4170000  73.0540000 156.4480000  25.2400000
  73.3210000 156.0220000  26.3660000  72.4450000 157.6090000  24.9990000
  71.9400000 157.8930000  23.9740000  72.0590000 158.6090000  25.9780000
  72.6470000 158.2250000  26.9330000  72.5240000 159.9930000  25.4980000
  72.0240000 160.8830000  26.1060000  71.9110000 160.1280000  24.4760000
  74.0220000 160.2200000  25.5320000  74.5200000 159.2950000  24.9680000
  74.3940000 161.4100000  24.7240000  74.5410000 162.4130000  25.3530000
  75.3350000 161.1610000  24.0400000  73.6270000 161.7800000  23.8870000
  74.5260000 160.3450000  26.9440000  75.2370000 159.4470000  27.2550000
  73.6860000 160.3670000  27.7860000  75.1870000 161.3110000  27.1850000
  70.5880000 158.6180000  26.3050000  69.7570000 158.2130000  25.4910000
  70.2780000 159.1050000  27.5140000  70.9950000 159.8670000  28.0660000
  68.9390000 159.1920000  28.0640000  68.3760000 159.1280000  27.0220000
  68.6660000 157.9540000  28.9250000  69.3420000 157.0540000  28.5540000
  69.0290000 158.2490000  30.0250000  67.2190000 157.6000000  29.1990000
  66.3680000 158.3690000  29.5370000  66.5190000 157.1440000  27.9270000
  65.8430000 157.9360000  27.3380000  65.6170000 156.3600000  28.0320000
  67.1900000 156.7180000  27.0520000  67.1430000 156.4990000  30.2340000
  66.0760000 156.5890000  30.7760000  67.8650000 156.4660000  31.1800000
  66.9810000 155.4210000  29.7440000  68.8520000 160.4350000  28.9130000
  69.5230000 160.5090000  29.9410000  67.9880000 161.4050000  28.5340000
  67.1590000 161.4790000  27.3110000  65.9720000 161.6230000  27.1540000
  66.8510000 160.3260000  27.3210000  67.0910000 162.9550000  27.0480000
  67.9910000 162.7560000  26.2920000  66.8490000 164.0390000  26.6220000
  66.9780000 163.5310000  28.4390000  67.2040000 164.6590000  28.7300000
  65.7950000 163.5050000  28.6100000  67.8800000 162.6500000  29.3140000
  68.8640000 163.2570000  29.5750000  67.3390000 162.5030000  30.7450000
  67.2860000 163.5100000  31.4730000  66.9950000 161.2570000  31.1580000
  66.2780000 160.6500000  30.4420000  66.4660000 160.8400000  32.4770000
  65.2810000 161.0010000  32.4340000  66.9960000 159.4430000  32.8540000
  66.0570000 158.7450000  32.5970000  67.9990000 159.0150000  32.4080000
  67.0750000 159.3390000  34.4020000  66.0350000 159.7510000  34.8270000
  67.9210000 159.9750000  34.9580000  67.5060000 158.0260000  35.0520000
  68.4010000 157.5010000  35.6240000  67.1390000 158.3600000  36.1490000
  66.4620000 157.0540000  34.7260000  65.4180000 157.2980000  35.2530000
  66.5590000 155.7660000  34.4130000  67.7680000 155.1860000  34.3660000
  67.4370000 155.3520000  35.5200000  68.6050000 154.7120000  35.0430000
  65.4180000 155.1010000  34.1530000  64.5230000 155.5410000  33.5240000
  64.8680000 154.5260000  35.0470000  66.7060000 161.8240000  33.6480000
  67.8460000 162.1530000  33.9780000  67.7690000 161.4120000  33.0900000
  83.4060000 150.2660000  15.8060000  83.4500000 149.3420000  16.8020000
  82.9460000 151.5320000  16.1480000  83.0640000 149.5980000  18.1070000
  82.5540000 151.8310000  17.4290000  82.6150000 150.8550000  18.4090000
  83.1460000 148.5290000  19.1150000  82.3530000 147.5290000  19.0330000
  84.0440000 148.5040000  20.1950000  84.6770000 149.2510000  20.2980000
  84.0780000 147.4260000  21.1650000  84.5090000 147.9740000  22.4650000
  85.0430000 146.3790000  20.6590000  83.6730000 148.2810000  23.3320000
  85.8920000 148.1390000  22.7030000  86.4660000 146.8010000  20.6810000
  86.7860000 147.8940000  21.6250000  87.8210000 148.6060000  21.5010000
  86.2260000 148.4170000  23.5870000  83.7820000 149.9760000  14.3820000
  85.7370000 151.7140000  14.5790000  86.9830000 151.7680000  13.6740000
  86.1770000 150.7290000  15.6670000  84.4080000 151.0940000  13.7870000
  85.5110000 153.2400000  15.3970000  83.6030000 151.9760000  13.0360000
  84.7830000 154.3170000  14.7200000  84.3620000 153.1070000  12.3990000
  84.5560000 154.2390000  13.3070000  84.5090000 155.5120000  12.6760000
  84.3140000 155.5740000  11.4440000  84.6820000 156.7380000  13.4310000
  85.3470000 157.8010000  12.8800000  84.1900000 156.8630000  14.7100000
  85.5290000 158.9450000  13.5480000  84.3640000 158.0240000  15.4150000
  85.0400000 159.0910000  14.8450000
