LIG
    31
  84.1570000 154.9790000  14.2390000  85.0550000 153.9260000  14.2120000
  82.8200000 154.6220000  14.3470000  84.6770000 152.6040000  14.2860000
  82.3880000 153.3150000  14.4240000  83.3280000 152.3090000  14.3920000
  85.4000000 151.2860000  14.2840000  83.2510000 150.8210000  14.4460000
  84.4960000 150.5410000  15.1280000  85.1230000 150.6250000  12.9530000
  83.6220000 150.3470000  13.0540000  84.6860000 149.7590000  16.2730000
  85.4030000 151.4530000  11.8740000  82.9950000 151.0850000  12.0710000
  85.8270000 149.5700000  16.8020000  84.8890000 152.2720000  11.9530000
  83.2300000 152.0210000  12.1700000  84.3060000 156.3480000  11.8260000
  84.5800000 156.9620000  12.8910000  84.5690000 156.3340000  14.1610000
  84.9090000 158.3530000  12.7540000  84.9660000 157.0630000  15.3210000
  85.2200000 159.0530000  13.9560000  84.6200000 158.5460000  15.2140000
  85.9850000 160.0710000  13.9230000  84.9200000 158.7990000  11.8760000
  83.6330000 149.1160000  16.9380000  83.0680000 149.5720000  18.1270000
  83.7690000 149.0920000  19.3610000  81.5890000 149.2770000  18.1480000
  83.2000000 151.1020000  18.1170000
