LIG
    31
  85.3660000 154.7440000  13.6730000  85.3950000 153.8630000  14.7230000
  85.8410000 154.3130000  12.4520000  85.8950000 152.5670000  14.5480000
  86.3430000 153.0190000  12.2670000  86.3710000 152.1380000  13.3230000
  86.0610000 151.3950000  15.4550000  86.8200000 150.7400000  13.4860000
  87.2800000 150.8190000  14.8790000  85.0590000 150.3670000  14.9870000
  85.6340000 149.8220000  13.6860000  88.4950000 150.4530000  15.4410000
  83.8860000 151.0550000  14.6520000  84.7260000 149.8980000  12.6450000
  89.3810000 149.9730000  14.6850000  84.0870000 151.7350000  13.9910000
  84.4330000 150.8170000  12.5370000  84.2080000 156.3090000  11.5700000
  84.5990000 156.8550000  12.6170000  84.8870000 156.1030000  13.7830000
  84.7710000 158.2870000  12.6810000  84.7270000 156.7090000  15.0800000
  85.2230000 158.8360000  13.9440000  84.6220000 158.1800000  15.1270000
  86.0360000 159.7640000  13.9370000  84.5890000 158.8630000  11.9030000
  88.8200000 150.5750000  16.7830000  90.1460000 150.7550000  17.2510000
  90.9620000 151.4550000  16.1800000  90.1980000 151.5410000  18.5320000
  90.7220000 149.3750000  17.5000000
