LIG
    36
  80.8720000 150.2190000  17.1830000  79.6080000 150.7370000  17.3570000
  80.9260000 148.8820000  16.7710000  78.4690000 149.9900000  17.1390000
  79.8100000 148.1300000  16.5520000  78.5360000 148.6830000  16.7360000
  77.1720000 150.6070000  17.3420000  76.2840000 150.6060000  16.4270000
  76.7830000 151.2490000  18.5470000  77.4180000 151.2860000  19.2980000
  75.4530000 151.8600000  18.7020000  75.6150000 153.0360000  19.5650000
  74.4680000 150.8410000  19.2360000  75.7300000 154.2180000  19.1100000
  75.6430000 152.8290000  20.9840000  74.5460000 150.6090000  20.7020000
  75.4290000 151.5070000  21.4430000  75.9980000 151.1170000  22.4820000
  75.8040000 153.5710000  21.6100000  82.1260000 150.9870000  17.4000000
  84.1060000 150.6960000  15.7780000  84.8850000 150.4000000  17.0560000
  83.8810000 149.3260000  15.1480000  82.6700000 151.3860000  16.1550000
  85.1960000 151.5750000  14.7190000  82.0430000 152.3910000  15.4460000
  85.1770000 153.0360000  15.1740000  82.7540000 152.9910000  14.2790000
  83.9880000 153.6260000  14.6020000  84.0900000 155.0130000  14.3430000
  83.0820000 155.5880000  13.8400000  85.3160000 155.8000000  14.6380000
  85.2160000 157.1600000  14.1970000  84.4310000 158.0110000  15.0340000
  84.7790000 157.2730000  12.8190000  86.1750000 157.4990000  14.2660000
