LIG
    31
  84.3680000 154.8760000  14.3060000  85.0700000 153.6870000  14.4210000
  82.9940000 154.7510000  14.2640000  84.4610000 152.4400000  14.4920000
  82.3570000 153.5130000  14.3320000  83.0830000 152.3570000  14.4460000
  84.9440000 151.0410000  14.6140000  82.7430000 150.9050000  14.5430000
  83.8530000 150.4810000  15.3970000  84.6620000 150.3870000  13.2810000
  83.1440000 150.2340000  13.2490000  83.8550000 149.7530000  16.6070000
  85.3000000 149.1650000  13.1470000  82.5860000 150.8250000  12.1370000
  84.9610000 149.5090000  17.1630000  85.0130000 148.5710000  13.8580000
  82.8360000 151.7620000  12.1080000  85.8210000 156.0160000  12.0750000
  85.4730000 156.7140000  13.0410000  85.0310000 156.1290000  14.2600000
  85.5070000 158.1490000  12.9640000  85.2790000 156.9300000  15.4410000
  85.1090000 158.9330000  14.0800000  84.5340000 158.2550000  15.2590000
  85.2710000 160.1740000  13.9990000  85.8070000 158.5900000  12.1360000
  82.7230000 149.2920000  17.2210000  81.9410000 150.0120000  18.1280000
  81.2260000 149.1180000  19.1190000  80.9700000 150.9530000  17.4380000
  82.8860000 150.8910000  18.9490000
