LIG
    31
  83.9850000 154.9630000  14.3500000  84.6300000 153.7890000  14.6880000
  82.6300000 154.9950000  14.1500000  83.9570000 152.6180000  14.8370000
  81.9390000 153.7990000  14.3020000  82.5850000 152.6320000  14.6380000
  84.2930000 151.2040000  15.1830000  82.1110000 151.2520000  14.8580000
  83.2820000 150.5140000  14.4010000  83.7330000 150.9830000  16.5690000
  82.2200000 150.9940000  16.3460000  83.3290000 149.4660000  13.4800000
  84.1710000 149.7370000  17.0020000  81.7210000 149.7200000  16.5830000
  84.3720000 148.8670000  13.1250000  83.9160000 149.0610000  16.3550000
  82.1890000 149.0810000  16.0230000  84.9070000 156.0100000  11.8930000
  84.9090000 156.7440000  12.9190000  84.7400000 156.1800000  14.2030000
  85.0800000 158.1500000  12.8010000  85.3330000 156.8440000  15.3430000
  85.0710000 158.9220000  14.0010000  84.9320000 158.2890000  15.3290000
  85.1840000 160.1550000  13.9110000  85.2000000 158.5770000  11.9220000
  82.1440000 149.0350000  12.8980000  81.6390000 147.7360000  13.0140000
  80.3670000 147.5210000  12.2240000  82.6370000 146.6730000  12.6300000
  81.3160000 147.5160000  14.4960000
