%VERSION  VERSION_STAMP = V0001.000  DATE = 09/07/26  08:43:27                  
%FLAG TITLE                                                                     
%FORMAT(20a4)                                                                   
LIG                                                                             
%FLAG POINTERS                                                                  
%FORMAT(10I8)                                                                   
      31      10       3      31       4      49      11      80       0       0
     148       1      31      49      80      17      29      13      12       0
       0       0       0       0       0       0       0       0      31       0
       0
%FLAG ATOM_NAME                                                                 
%FORMAT(20a4)                                                                   
C1  C2  C3  C4  C5  C6  C7  C8  N1  C9  C10 C11 O1  O2  O3  H1  H2  O4  C12 N2  
N3  C13 C14 C15 O5  H3  O6  C16 C17 C18 C19 
%FLAG CHARGE                                                                    
%FORMAT(5E16.8)                                                                 
  2.63478058E+00 -1.37545565E+00 -6.51684115E-01  1.12380569E+00 -1.02272659E+00
  1.21965498E+00  1.68109829E+00  1.69099300E+00 -3.78766906E+00  2.31643700E+00
  2.31683789E+00  6.66072443E+00 -6.49907441E+00 -6.49907441E+00 -4.39844411E+00
  3.98069788E+00  3.98069788E+00 -4.59382361E+00  5.92140927E+00 -3.01252886E+00
 -4.13562387E+00  3.99268815E-01  5.40877953E+00  2.65043354E-01 -4.76706301E+00
  2.94007699E+00 -4.65525098E+00  4.79120756E+00 -6.44376973E-01 -6.44376973E-01
 -6.44376973E-01
%FLAG ATOMIC_NUMBER                                                             
%FORMAT(10I8)                                                                   
       6       6       6       6       6       6       6       6       7       6
       6       6       8       8       8       1       1       8       6       7
       7       6       6       6       8       1       8       6       6       6
       6
%FLAG MASS                                                                      
%FORMAT(5E16.8)                                                                 
  1.20100000E+01  1.20100000E+01  1.20100000E+01  1.20100000E+01  1.20100000E+01
  1.20100000E+01  1.20100000E+01  1.20100000E+01  1.40100000E+01  1.20100000E+01
  1.20100000E+01  1.20100000E+01  1.60000000E+01  1.60000000E+01  1.60000000E+01
  1.00800000E+00  1.00800000E+00  1.60000000E+01  1.20100000E+01  1.40100000E+01
  1.40100000E+01  1.20100000E+01  1.20100000E+01  1.20100000E+01  1.60000000E+01
  1.00800000E+00  1.60000000E+01  1.20100000E+01  1.20100000E+01  1.20100000E+01
  1.20100000E+01
%FLAG ATOM_TYPE_INDEX                                                           
%FORMAT(10I8)                                                                   
       1       2       2       1       2       1       1       1       3       1
       1       1       4       4       5       6       6       5       1       3
       7       2       1       2       5       8       9      10       2       2
       2
%FLAG NUMBER_EXCLUDED_ATOMS                                                     
%FORMAT(10I8)                                                                   
      12      11       7      10       6       7      10       9       8       6
       5       6       2       1       2       1       1       6       7       5
       5       3       3       2       1       1       4       3       2       1
       1
%FLAG NONBONDED_PARM_INDEX                                                      
%FORMAT(10I8)                                                                   
       1       2       4       7      11      16      22      29      37      46
       2       3       5       8      12      17      23      30      38      47
       4       5       6       9      13      18      24      31      39      48
       7       8       9      10      14      19      25      32      40      49
      11      12      13      14      15      20      26      33      41      50
      16      17      18      19      20      21      27      34      42      51
      22      23      24      25      26      27      28      35      43      52
      29      30      31      32      33      34      35      36      44      53
      37      38      39      40      41      42      43      44      45      54
      46      47      48      49      50      51      52      53      54      55
%FLAG RESIDUE_LABEL                                                             
%FORMAT(20a4)                                                                   
LIG 
%FLAG RESIDUE_POINTER                                                           
%FORMAT(10I8)                                                                   
       1
%FLAG BOND_FORCE_CONSTANT                                                       
%FORMAT(5E16.8)                                                                 
  2.94000000E+02  3.36100000E+02  3.25600000E+02  6.99130000E+02  3.54250000E+02
  2.91110000E+02  3.17460000E+02  3.48550000E+02  5.90600000E+02  3.51310000E+02
  5.35510000E+02  4.27600000E+02  4.28900000E+02  4.03200000E+02  2.50880000E+02
  2.82270000E+02  2.84580000E+02
%FLAG BOND_EQUIL_VALUE                                                          
%FORMAT(5E16.8)                                                                 
  1.41980000E+00  1.41440000E+00  1.44000000E+00  1.20950000E+00  1.39860000E+00
  1.42280000E+00  1.39670000E+00  1.36440000E+00  1.21900000E+00  1.36210000E+00
  9.72500000E-01  1.37900000E+00  1.33000000E+00  1.01300000E+00  1.50560000E+00
  1.42730000E+00  1.46560000E+00
%FLAG ANGLE_FORCE_CONSTANT                                                      
%FORMAT(5E16.8)                                                                 
  7.85200000E+01  6.62000000E+01  5.28000000E+01  5.67000000E+01  7.10140000E+01
  6.62000000E+01  6.77000000E+01  5.85000000E+01  6.36700000E+01  6.69600000E+01
  7.82300000E+01  7.72100000E+01  7.88600000E+01  8.66800000E+01  8.75600000E+01
  6.74100000E+01  8.94300000E+01  1.01260000E+02  7.42000000E+01  6.96000000E+01
  6.37000000E+01  4.83000000E+01  7.29000000E+01  7.80000000E+01  6.87450000E+01
  5.79000000E+01  7.58200000E+01  7.89600000E+01  6.33700000E+01
%FLAG ANGLE_EQUIL_VALUE                                                         
%FORMAT(5E16.8)                                                                 
  2.07467377E+00  2.07484830E+00  3.14159400E+00  3.14159400E+00  2.06149653E+00
  2.03365852E+00  2.09439600E+00  3.14159400E+00  2.09474507E+00  2.09771213E+00
  2.04831929E+00  2.14082178E+00  2.09265067E+00  2.13925098E+00  1.91864127E+00
  1.89507931E+00  2.02144121E+00  2.15024656E+00  2.14762857E+00  2.04273423E+00
  2.21796536E+00  2.05163542E+00  1.98199675E+00  3.09237569E+00  1.99735565E+00
  3.14159400E+00  2.22843734E+00  1.90398050E+00  1.92614619E+00
%FLAG DIHEDRAL_FORCE_CONSTANT                                                   
%FORMAT(5E16.8)                                                                 
  2.50000000E+00  0.00000000E+00  1.65000000E+00  3.62500000E+00  3.12500000E+00
  9.50000000E-01  8.55000000E-01  2.70000000E+00  3.83333333E-01  1.40000000E+00
  2.00000000E+00  1.10000000E+00  1.05000000E+01
%FLAG DIHEDRAL_PERIODICITY                                                      
%FORMAT(5E16.8)                                                                 
  2.00000000E+00  2.00000000E+00  2.00000000E+00  2.00000000E+00  2.00000000E+00
  2.00000000E+00  2.00000000E+00  2.00000000E+00  3.00000000E+00  1.00000000E+00
  1.00000000E+00  2.00000000E+00  2.00000000E+00
%FLAG DIHEDRAL_PHASE                                                            
%FORMAT(5E16.8)                                                                 
  3.14159400E+00  3.14159400E+00  3.14159400E+00  3.14159400E+00  3.14159400E+00
  3.14159400E+00  3.14159400E+00  3.14159400E+00  0.00000000E+00  3.14159400E+00
  0.00000000E+00  3.14159400E+00  3.14159400E+00
%FLAG SCEE_SCALE_FACTOR                                                         
%FORMAT(5E16.8)                                                                 
  1.20000000E+00  1.20000000E+00  1.20000000E+00  1.20000000E+00  1.20000000E+00
  1.20000000E+00  1.20000000E+00  1.20000000E+00  1.20000000E+00  1.20000000E+00
  1.20000000E+00  0.00000000E+00  0.00000000E+00
%FLAG SCNB_SCALE_FACTOR                                                         
%FORMAT(5E16.8)                                                                 
  2.00000000E+00  2.00000000E+00  2.00000000E+00  2.00000000E+00  2.00000000E+00
  2.00000000E+00  2.00000000E+00  2.00000000E+00  2.00000000E+00  2.00000000E+00
  2.00000000E+00  0.00000000E+00  0.00000000E+00
%FLAG SOLTY                                                                     
%FORMAT(5E16.8)                                                                 
  0.00000000E+00  0.00000000E+00  0.00000000E+00  0.00000000E+00  0.00000000E+00
  0.00000000E+00  0.00000000E+00  0.00000000E+00  0.00000000E+00  0.00000000E+00
  0.00000000E+00  0.00000000E+00
%FLAG LENNARD_JONES_ACOEF                                                       
%FORMAT(5E16.8)                                                                 
  6.96551276E+05  1.18640578E+06  2.00671338E+06  7.01106848E+05  1.20132739E+06
  7.02078680E+05  5.92438683E+05  1.01229921E+06  5.94682930E+05  5.03152404E+05
  5.17507491E+05  8.92208123E+05  5.15491878E+05  4.37717034E+05  3.76435470E+05
  2.25372434E+02  4.71994656E+02  1.89434762E+02  1.74176419E+02  1.15813907E+02
  1.10360882E-05  8.11497350E+05  1.38616450E+06  8.14793385E+05  6.89296946E+05
  5.99897901E+05  2.40872585E+02  9.44293233E+05  1.71458823E+03  3.37137075E+03
  1.52360475E+03  1.36475542E+03  9.87857350E+02  2.61760843E-03  1.88178855E+03
  1.34728399E-01  4.46121722E+05  7.65280989E+05  4.46307018E+05  3.78207390E+05
  3.27367585E+05  1.16469347E+02  5.18220260E+05  9.46795083E+02  2.83662575E+05
  8.43969952E+05  1.43239677E+06  8.52084164E+05  7.18991463E+05  6.30925504E+05
  3.03553352E+02  9.84684600E+05  2.23577481E+03  5.42502534E+05  1.02073671E+06
%FLAG LENNARD_JONES_BCOEF                                                       
%FORMAT(5E16.8)                                                                 
  5.24668528E+02  7.71958727E+02  1.13185062E+03  5.97113873E+02  8.81180204E+02
  6.77820248E+02  4.76608379E+02  7.02365877E+02  5.41675626E+02  4.32634597E+02
  4.98871431E+02  7.38469198E+02  5.64804067E+02  4.51916854E+02  4.69350655E+02
  4.40751799E+00  7.19086644E+00  4.58384710E+00  3.81654050E+00  3.48534600E+00
  4.55498033E-04  6.48597119E+02  9.55669738E+02  7.37244936E+02  5.88797748E+02
  6.15165511E+02  5.21867651E+00  8.01323529E+02  1.46824710E+01  2.32108730E+01
  1.57004457E+01  1.29026271E+01  1.22938581E+01  8.47240681E-03  1.76168249E+01
  7.34107347E-02  3.88758656E+02  5.74027680E+02  4.41089616E+02  3.52573684E+02
  3.67361018E+02  2.93355636E+00  4.79881022E+02  1.01016461E+01  2.87011518E+02
  5.90251928E+02  8.66911122E+02  6.72777963E+02  5.36620538E+02  5.62969425E+02
  5.22789272E+00  7.30206155E+02  1.71355763E+01  4.38146883E+02  6.63431737E+02
%FLAG BONDS_INC_HYDROGEN                                                        
%FORMAT(10I8)                                                                   
      36      45      11      39      48      11      60      75      14
%FLAG BONDS_WITHOUT_HYDROGEN                                                    
%FORMAT(10I8)                                                                   
       0      57       1       0       3       2       0       6       2       3
       9       3       6      12       4       9      15       5       9      18
       5      12      15       3      15      21       5      18      24       6
      18      27       5      21      30       5      21      24       6      24
      33       7      27      36       8      27      30       5      30      39
       8      33      42       9      33      78      10      51      54       9
      54      57       7      54      60      12      57      63      13      60
      66      12      63      69       4      66      72       9      66      69
      15      78      81      16      81      84      17      81      87      17
      81      90      17
%FLAG ANGLES_INC_HYDROGEN                                                       
%FORMAT(10I8)                                                                   
      27      36      45      16      30      39      48      16      54      60
      75      22      66      60      75      22
%FLAG ANGLES_WITHOUT_HYDROGEN                                                   
%FORMAT(10I8)                                                                   
       0      57      54       1       0      57      63       2       0       3
       9       3       0       6      12       4       3       0      57       5
       3       0       6       6       3       9      15       7       3       9
      18       7       6       0      57       5       6      12      15       8
       9      15      12       7       9      15      21       9       9      18
      24      10       9      18      27       9      12      15      21       7
      15       9      18       9      15      21      30       9      15      21
      24      10      18      24      21      11      18      24      33      12
      18      27      36      13      18      27      30       9      21      30
      27       9      21      30      39      13      21      24      33      12
      24      18      27      10      24      21      30      10      24      33
      42      14      24      33      78      15      27      30      39      13
      30      27      36      13      33      78      81      17      42      33
      78      18      51      54      57      14      51      54      60      19
      54      57      63      20      54      60      66      21      57      54
      60      23      57      63      69      24      60      66      72      19
      60      66      69      25      63      69      66      26      69      66
      72      27      78      81      84      28      78      81      87      28
      78      81      90      28      84      81      87      29      84      81
      90      29      87      81      90      29
%FLAG DIHEDRALS_INC_HYDROGEN                                                    
%FORMAT(10I8)                                                                   
      18      27      36      45       7      21      30      39      48       7
      27      30      39      48       7      30      27      36      45       7
      51      54      60      75      11      51      54     -60      75       1
      57      54      60      75       1      69      66      60      75       1
      72      66      60      75      11      72      66     -60      75       1
      54      66     -60     -75      12
%FLAG DIHEDRALS_WITHOUT_HYDROGEN                                                
%FORMAT(10I8)                                                                   
       0      57      54      51       1       0      57      54      60       1
       0      57      63      69       2       0       3       9      15       2
       0       3       9      18       2       0       6     -12      15       2
       3       0      57      54       3       3       0      57      63       3
       3       0       6      12       2       3       9     -15      12       4
       3       9      15      21       4       3       9      18      24       4
       3       9      18      27       4       6       0      57      54       3
       6       0      57      63       3       6       0       3       9       2
       6      12     -15       9       2       6      12      15      21       2
      57       0       3       9       2       9      15      21      30       4
       9      15     -21      24       4       9      18     -24      21       5
       9      18      24      33       6       9      18      27      36       4
       9      18     -27      30       4      57       0       6      12       2
      12      15       9      18       4      12      15      21      30       4
      12      15      21      24       4      15       9     -18      24       4
      15       9      18      27       4      15      21     -30      27       4
      15      21      30      39       4      15      21     -24      18       5
      15      21      24      33       6      18       9     -15      21       4
      18      24     -21      30       5      18      24      33      42       1
      18      24      33      78       1      18      27     -30      21       4
      18      27      30      39       4      21      30      27      36       4
      21      24     -18      27       5      21      24      33      42       1
      21      24      33      78       1      24      18      27      36       4
      24      18     -27      30       4      24      21     -30      27       4
      24      21      30      39       4      24      33      78      81       8
      27      18      24      33       6      30      21      24      33       6
      33      78      81      84       9      33      78      81      87       9
      33      78      81      90       9      36      27      30      39       4
      42      33      78      81      10      42      33     -78      81       8
      51      54      57      63       1      51      54      60      66       1
      54      57      63      69       2      54      60      66      72       1
      54      60     -66      69       1      57      54      60      66       1
      57      63     -69      66       2      60      54      57      63       1
      60      66     -69      63       2      63      69      66      72       2
      57       0      -6      -3      12       3      15      -9     -18      12
      12       9     -15     -21      12       9      27     -18     -24      12
      15      30     -21     -24      12      33      18     -24     -21      12
      18      30     -27     -36      12      21      27     -30     -39      12
      24      42     -33     -78      12      57      60     -54     -51      13
       0      57     -63     -54      12      69      60     -66     -72      13
%FLAG EXCLUDED_ATOMS_LIST                                                       
%FORMAT(10I8)                                                                   
       2       3       4       5       6       7      18      19      20      21
      22      24       3       4       5       6       7       8       9      10
      19      20      22       4       5       6       8      19      20      22
       5       6       7       8       9      10      11      12      13      20
       6       7       8       9      11      20       7       8       9      10
      11      12      14       8       9      10      11      12      13      14
      15      16      27       9      10      11      12      13      14      15
      17      27      10      11      12      13      14      15      27      28
      11      12      13      14      16      17      12      13      14      16
      17      15      27      28      29      30      31      14      16      17
      27      28       0       0      19      20      21      22      23      26
      20      21      22      23      24      25      26      21      22      23
      24      26      22      23      24      25      26      23      24      25
      24      25      26      25      26      26       0      28      29      30
      31      29      30      31      30      31      31       0
%FLAG HBOND_ACOEF                                                               
%FORMAT(5E16.8)                                                                 

%FLAG HBOND_BCOEF                                                               
%FORMAT(5E16.8)                                                                 

%FLAG HBCUT                                                                     
%FORMAT(5E16.8)                                                                 

%FLAG AMBER_ATOM_TYPE                                                           
%FORMAT(20a4)                                                                   
ce  c1  c1  ca  c1  ca  ca  ca  n   ca  ca  c   oh  oh  o   ho  ho  o   c   n   
ns  c1  c   c1  o   hn  os  c3  c1  c1  c1  
%FLAG TREE_CHAIN_CLASSIFICATION                                                 
%FORMAT(20a4)                                                                   
BLA BLA BLA BLA BLA BLA BLA BLA BLA BLA BLA BLA BLA BLA BLA BLA BLA BLA BLA BLA 
BLA BLA BLA BLA BLA BLA BLA BLA BLA BLA BLA 
%FLAG JOIN_ARRAY                                                                
%FORMAT(10I8)                                                                   
       0       0       0       0       0       0       0       0       0       0
       0       0       0       0       0       0       0       0       0       0
       0       0       0       0       0       0       0       0       0       0
       0
%FLAG IROTAT                                                                    
%FORMAT(10I8)                                                                   
       0       0       0       0       0       0       0       0       0       0
       0       0       0       0       0       0       0       0       0       0
       0       0       0       0       0       0       0       0       0       0
       0
%FLAG RADIUS_SET                                                                
%FORMAT(1a80)                                                                   
modified Bondi radii (mbondi)                                                   
%FLAG RADII                                                                     
%FORMAT(5E16.8)                                                                 
  1.70000000E+00  1.70000000E+00  1.70000000E+00  1.70000000E+00  1.70000000E+00
  1.70000000E+00  1.70000000E+00  1.70000000E+00  1.55000000E+00  1.70000000E+00
  1.70000000E+00  1.70000000E+00  1.50000000E+00  1.50000000E+00  1.50000000E+00
  8.00000000E-01  8.00000000E-01  1.50000000E+00  1.70000000E+00  1.55000000E+00
  1.55000000E+00  1.70000000E+00  1.70000000E+00  1.70000000E+00  1.50000000E+00
  1.30000000E+00  1.50000000E+00  1.70000000E+00  1.70000000E+00  1.70000000E+00
  1.70000000E+00
%FLAG SCREEN                                                                    
%FORMAT(5E16.8)                                                                 
  7.20000000E-01  7.20000000E-01  7.20000000E-01  7.20000000E-01  7.20000000E-01
  7.20000000E-01  7.20000000E-01  7.20000000E-01  7.90000000E-01  7.20000000E-01
  7.20000000E-01  7.20000000E-01  8.50000000E-01  8.50000000E-01  8.50000000E-01
  8.50000000E-01  8.50000000E-01  8.50000000E-01  7.20000000E-01  7.90000000E-01
  7.90000000E-01  7.20000000E-01  7.20000000E-01  7.20000000E-01  8.50000000E-01
  8.50000000E-01  8.50000000E-01  7.20000000E-01  7.20000000E-01  7.20000000E-01
  7.20000000E-01
%FLAG IPOL                                                                      
%FORMAT(1I8)                                                                    
       0
