LIG
    35
  84.3580000 150.0720000  14.3970000  82.9860000 150.1660000  14.1910000
  84.9310000 150.9700000  15.3610000  82.2650000 149.7470000  15.5070000
  84.4930000 150.9350000  16.7540000  82.1130000 150.9180000  16.3240000
  83.1810000 151.6650000  17.0130000  80.8050000 151.3920000  16.4900000
  80.5160000 152.4150000  17.1710000  84.3270000 149.1420000  14.8150000
  82.3810000 149.3620000  13.0990000  81.4800000 149.9010000  12.3580000
  82.6760000 148.0630000  12.7750000  81.8870000 146.9710000  13.2020000
  85.2320000 149.9260000  13.2610000  85.6710000 153.6600000  12.8040000
  85.1970000 152.4280000  13.1770000  86.8160000 153.6860000  12.0010000
  85.7880000 151.2090000  12.8030000  87.4120000 152.5170000  11.6230000
  86.8920000 151.2810000  12.0280000  85.0900000 154.5690000  15.4830000
  85.1080000 155.3210000  14.5010000  85.0700000 154.9020000  13.1520000
  85.1690000 156.7400000  14.7610000  84.4680000 155.7020000  12.1050000
  85.1830000 157.5680000  13.6100000  84.3770000 157.1720000  12.4410000
  85.8660000 158.6130000  13.5920000  85.2000000 157.1080000  15.6740000
  79.7570000 150.7290000  15.8920000  78.7690000 149.9710000  16.5090000
  77.4100000 150.5090000  16.0380000  78.8210000 150.0280000  18.0390000
  78.8650000 148.5470000  16.0160000
