%VERSION  VERSION_STAMP = V0001.000  DATE = 09/07/26  08:43:02                  
%FLAG TITLE                                                                     
%FORMAT(20a4)                                                                   
LIG                                                                             
%FLAG POINTERS                                                                  
%FORMAT(10I8)                                                                   
      35       8       2      35       5      50      11      70       0       0
     158       1      35      50      70      18      36      11      11       0
       0       0       0       0       0       0       0       0      35       0
       0
%FLAG ATOM_NAME                                                                 
%FORMAT(20a4)                                                                   
N1  C1  C2  C3  C4  N2  C5  C6  O1  H1  C7  O2  O3  C8  C9  C10 C11 C12 C13 C14 
C15 O4  C16 N3  N4  C17 C18 C19 O5  H2  O6  C20 C21 C22 C23 
%FLAG CHARGE                                                                    
%FORMAT(5E16.8)                                                                 
  8.03346496E+00  3.15706814E+00  7.17612396E-01  6.41315626E-01  8.55609874E-01
 -2.36683988E+00  6.84721145E-01  6.91793219E+00 -4.37335200E+00  4.32876203E+00
  6.56059289E+00 -4.60643344E+00 -3.90482022E+00  1.71528332E+00  4.26037374E-02
  2.67024118E+00 -1.02637105E+00 -5.02315922E-01  2.85430463E+00 -2.58209991E-01
 -5.66294417E-01 -4.59391472E+00  5.92135461E+00 -3.01119863E+00 -4.13553276E+00
  3.99287038E-01  5.40874309E+00  2.65098020E-01 -4.76715413E+00  2.94016811E+00
 -4.63835891E+00  4.79195468E+00 -6.44340528E-01 -6.44340528E-01 -6.44340528E-01
%FLAG ATOMIC_NUMBER                                                             
%FORMAT(10I8)                                                                   
       7       6       6       6       6       7       6       6       8       1
       6       8       8       6       6       6       6       6       6       6
       6       8       6       7       7       6       6       6       8       1
       8       6       6       6       6
%FLAG MASS                                                                      
%FORMAT(5E16.8)                                                                 
  1.40100000E+01  1.20100000E+01  1.20100000E+01  1.20100000E+01  1.20100000E+01
  1.40100000E+01  1.20100000E+01  1.20100000E+01  1.60000000E+01  1.00800000E+00
  1.20100000E+01  1.60000000E+01  1.60000000E+01  1.20100000E+01  1.20100000E+01
  1.20100000E+01  1.20100000E+01  1.20100000E+01  1.20100000E+01  1.20100000E+01
  1.20100000E+01  1.60000000E+01  1.20100000E+01  1.40100000E+01  1.40100000E+01
  1.20100000E+01  1.20100000E+01  1.20100000E+01  1.60000000E+01  1.00800000E+00
  1.60000000E+01  1.20100000E+01  1.20100000E+01  1.20100000E+01  1.20100000E+01
%FLAG ATOM_TYPE_INDEX                                                           
%FORMAT(10I8)                                                                   
       1       2       3       3       3       4       3       2       5       6
       2       5       7       3       3       2       3       3       2       3
       3       5       2       4       1       3       2       3       5       6
       7       8       3       3       3
%FLAG NUMBER_EXCLUDED_ATOMS                                                     
%FORMAT(10I8)                                                                   
      14      13       8      11       5       6       3       6       2       3
       4       2       1       1       5      11       7       6       3       2
       1       6       7       5       5       3       3       2       1       1
       4       3       2       1       1
%FLAG NONBONDED_PARM_INDEX                                                      
%FORMAT(10I8)                                                                   
       1       2       4       7      11      16      22      29       2       3
       5       8      12      17      23      30       4       5       6       9
      13      18      24      31       7       8       9      10      14      19
      25      32      11      12      13      14      15      20      26      33
      16      17      18      19      20      21      27      34      22      23
      24      25      26      27      28      35      29      30      31      32
      33      34      35      36
%FLAG RESIDUE_LABEL                                                             
%FORMAT(20a4)                                                                   
LIG 
%FLAG RESIDUE_POINTER                                                           
%FORMAT(10I8)                                                                   
       1
%FLAG BOND_FORCE_CONSTANT                                                       
%FORMAT(5E16.8)                                                                 
  3.78200000E+02  2.82000000E+02  3.73200000E+02  3.08440000E+02  4.66850000E+02
  6.99130000E+02  4.28900000E+02  3.17460000E+02  5.90600000E+02  3.51310000E+02
  4.15540000E+02  3.36100000E+02  2.94000000E+02  4.27600000E+02  4.03200000E+02
  2.50880000E+02  2.82270000E+02  2.84580000E+02
%FLAG BOND_EQUIL_VALUE                                                          
%FORMAT(5E16.8)                                                                 
  1.41700000E+00  1.51200000E+00  1.03000000E+00  1.44060000E+00  1.31850000E+00
  1.20950000E+00  1.33000000E+00  1.39670000E+00  1.21900000E+00  1.36210000E+00
  1.31410000E+00  1.41440000E+00  1.41980000E+00  1.37900000E+00  1.01300000E+00
  1.50560000E+00  1.42730000E+00  1.46560000E+00
%FLAG ANGLE_FORCE_CONSTANT                                                      
%FORMAT(5E16.8)                                                                 
  5.45490000E+01  6.61000000E+01  6.83270000E+01  5.88000000E+01  6.34380000E+01
  4.58000000E+01  8.00800000E+01  7.00000000E+01  5.91500000E+01  6.55000000E+01
  4.86000000E+01  7.48600000E+01  7.01000000E+01  6.96000000E+01  7.57000000E+01
  7.80000000E+01  8.66800000E+01  8.75600000E+01  8.94300000E+01  1.01260000E+02
  6.55030000E+01  6.62000000E+01  7.85200000E+01  6.62000000E+01  5.82000000E+01
  5.67000000E+01  7.10140000E+01  7.42000000E+01  6.37000000E+01  4.83000000E+01
  7.29000000E+01  6.87450000E+01  5.79000000E+01  7.58200000E+01  7.89600000E+01
  6.33700000E+01
%FLAG ANGLE_EQUIL_VALUE                                                         
%FORMAT(5E16.8)                                                                 
  3.14159400E+00  2.12092502E+00  2.01323816E+00  3.13391455E+00  1.97614989E+00
  1.92632072E+00  2.13122246E+00  1.93609457E+00  3.13609621E+00  1.98740727E+00
  1.92317913E+00  2.02667720E+00  2.12267035E+00  2.04273423E+00  1.79227938E+00
  3.09237569E+00  2.13925098E+00  1.91864127E+00  2.02144121E+00  2.15024656E+00
  2.05652234E+00  2.03365852E+00  2.07467377E+00  2.07484830E+00  3.12501337E+00
  3.14159400E+00  2.06149653E+00  2.14762857E+00  2.21796536E+00  2.05163542E+00
  1.98199675E+00  1.99735565E+00  3.14159400E+00  2.22843734E+00  1.90398050E+00
  1.92614619E+00
%FLAG DIHEDRAL_FORCE_CONSTANT                                                   
%FORMAT(5E16.8)                                                                 
  0.00000000E+00  2.17500000E+00  2.70000000E+00  0.00000000E+00  2.50000000E+00
  3.83333333E-01  1.40000000E+00  1.65000000E+00  2.00000000E+00  1.10000000E+00
  1.05000000E+01
%FLAG DIHEDRAL_PERIODICITY                                                      
%FORMAT(5E16.8)                                                                 
  2.00000000E+00  2.00000000E+00  2.00000000E+00  3.00000000E+00  2.00000000E+00
  3.00000000E+00  1.00000000E+00  2.00000000E+00  1.00000000E+00  2.00000000E+00
  2.00000000E+00
%FLAG DIHEDRAL_PHASE                                                            
%FORMAT(5E16.8)                                                                 
  3.14159400E+00  3.14159400E+00  3.14159400E+00  3.14159400E+00  3.14159400E+00
  0.00000000E+00  3.14159400E+00  3.14159400E+00  0.00000000E+00  3.14159400E+00
  3.14159400E+00
%FLAG SCEE_SCALE_FACTOR                                                         
%FORMAT(5E16.8)                                                                 
  1.20000000E+00  1.20000000E+00  1.20000000E+00  1.20000000E+00  1.20000000E+00
  1.20000000E+00  1.20000000E+00  1.20000000E+00  1.20000000E+00  0.00000000E+00
  0.00000000E+00
%FLAG SCNB_SCALE_FACTOR                                                         
%FORMAT(5E16.8)                                                                 
  2.00000000E+00  2.00000000E+00  2.00000000E+00  2.00000000E+00  2.00000000E+00
  2.00000000E+00  2.00000000E+00  2.00000000E+00  2.00000000E+00  0.00000000E+00
  0.00000000E+00
%FLAG SOLTY                                                                     
%FORMAT(5E16.8)                                                                 
  0.00000000E+00  0.00000000E+00  0.00000000E+00  0.00000000E+00  0.00000000E+00
  0.00000000E+00  0.00000000E+00  0.00000000E+00  0.00000000E+00  0.00000000E+00
  0.00000000E+00
%FLAG LENNARD_JONES_ACOEF                                                       
%FORMAT(5E16.8)                                                                 
  9.44293233E+05  8.11497350E+05  6.96551276E+05  1.38616450E+06  1.18640578E+06
  2.00671338E+06  8.14793385E+05  7.01106848E+05  1.20132739E+06  7.02078680E+05
  5.99897901E+05  5.17507491E+05  8.92208123E+05  5.15491878E+05  3.76435470E+05
  1.88178855E+03  1.71458823E+03  3.37137075E+03  1.52360475E+03  9.87857350E+02
  1.34728399E-01  5.18220260E+05  4.46121722E+05  7.65280989E+05  4.46307018E+05
  3.27367585E+05  9.46795083E+02  2.83662575E+05  9.84684600E+05  8.43969952E+05
  1.43239677E+06  8.52084164E+05  6.30925504E+05  2.23577481E+03  5.42502534E+05
  1.02073671E+06
%FLAG LENNARD_JONES_BCOEF                                                       
%FORMAT(5E16.8)                                                                 
  8.01323529E+02  6.48597119E+02  5.24668528E+02  9.55669738E+02  7.71958727E+02
  1.13185062E+03  7.37244936E+02  5.97113873E+02  8.81180204E+02  6.77820248E+02
  6.15165511E+02  4.98871431E+02  7.38469198E+02  5.64804067E+02  4.69350655E+02
  1.76168249E+01  1.46824710E+01  2.32108730E+01  1.57004457E+01  1.22938581E+01
  7.34107347E-02  4.79881022E+02  3.88758656E+02  5.74027680E+02  4.41089616E+02
  3.67361018E+02  1.01016461E+01  2.87011518E+02  7.30206155E+02  5.90251928E+02
  8.66911122E+02  6.72777963E+02  5.62969425E+02  1.71355763E+01  4.38146883E+02
  6.63431737E+02
%FLAG BONDS_INC_HYDROGEN                                                        
%FORMAT(10I8)                                                                   
       0      27       3      72      87      15
%FLAG BONDS_WITHOUT_HYDROGEN                                                    
%FORMAT(10I8)                                                                   
       0      42       1       0       3       2       0       6       1       3
      30       4       3       9       5       6      12       6       9      15
       7      12      18       6      15      21       8      15      18       7
      21      24       9      21      90      10      30      33       9      30
      36      10      36      39      11      42      54      12      45      69
      13      45      48      12      45      51      12      48      54      12
      51      57       6      54      60      12      57      60       6      63
      66       9      66      69       8      66      72      14      69      75
       7      72      78      14      75      81       6      78      84       9
      78      81      16      90      93      17      93      96      18      93
      99      18      93     102      18
%FLAG ANGLES_INC_HYDROGEN                                                       
%FORMAT(10I8)                                                                   
       3       0      27       6       6       0      27      11      27       0
      42      11      66      72      87      30      78      72      87      30
%FLAG ANGLES_WITHOUT_HYDROGEN                                                   
%FORMAT(10I8)                                                                   
       0      42      54       1       0       3      30       2       0       3
       9       3       0       6      12       4       3       0      42       5
       3       0       6       5       3      30      33       7       3      30
      36       8       3       9      15       9       6       0      42      10
       6      12      18      12       9       3      30      13       9      15
      21      14       9      15      18      15      12      18      15      16
      15      21      24      17      15      21      90      18      18      15
      21      14      21      90      93      19      24      21      90      20
      30      36      39      21      33      30      36      20      42      54
      48      22      42      54      60      22      45      69      66      23
      45      69      75      24      45      48      54      25      45      51
      57      26      48      45      69      27      48      45      51      22
      48      54      60      22      51      45      69      27      51      57
      60      12      54      60      57      26      63      66      69      17
      63      66      72      28      66      69      75      14      66      72
      78      29      69      66      72      31      69      75      81      16
      72      78      84      28      72      78      81      32      75      81
      78      33      81      78      84      34      90      93      96      35
      90      93      99      35      90      93     102      35      96      93
      99      36      96      93     102      36      99      93     102      36
%FLAG DIHEDRALS_INC_HYDROGEN                                                    
%FORMAT(10I8)                                                                   
      27       0       3       9       4      27       0       6      12       1
      27       0      42      54       1      27       0       3      30       4
      63      66      72      87       9      63      66     -72      87       5
      69      66      72      87       5      81      78      72      87       5
      84      78      72      87       9      84      78     -72      87       5
      66      78     -72     -87      10
%FLAG DIHEDRALS_WITHOUT_HYDROGEN                                                
%FORMAT(10I8)                                                                   
       0      42      54      48       1       0      42      54      60       1
       0       3      30      33       2       0       3      30      36       2
       0       3       9      15       1       0       6      12      18       1
       3       0      42      54       1       3       0       6      12       1
       3      30      36      39       3       3       9      15      21       1
       3       9      15      18       1       6       0      42      54       1
       6       0       3      30       4       6       0       3       9       4
       6      12      18      15       1      42       0       3       9       4
       9       3      30      33       2       9       3      30      36       2
       9      15      21      24       5       9      15      21      90       5
       9      15      18      12       1      42       0       6      12       1
      12      18      15      21       1      15       9       3      30       1
      15      21      90      93       3      18      15      21      24       5
      18      15      21      90       5      21      90      93      96       6
      21      90      93      99       6      21      90      93     102       6
      24      21      90      93       7      24      21     -90      93       3
      42       0       3      30       4      33      30      36      39       3
      42      54      48      45       1      42      54      60      57       1
      45      69      66      63       5      45      69      66      72       5
      45      69      75      81       1      45      48      54      60       1
      45      51     -57      60       1      48      45      69      66       8
      48      45      69      75       8      48      45      51      57       1
      48      54     -60      57       1      51      45      69      66       8
      51      45      69      75       8      51      45      48      54       1
      51      57     -60      54       1      54      48      45      69       1
      57      51      45      69       1      63      66      69      75       5
      63      66      72      78       5      66      69      75      81       1
      66      72      78      84       5      66      72     -78      81       5
      69      66      72      78       5      69      75     -81      78       1
      72      66      69      75       5      72      78     -81      75       1
      75      81      78      84       1       0       3      -9     -30      10
      21       9     -15     -18      10      15      24     -21     -90      10
       3      33     -30     -36      10      48      51     -45     -69      10
      42      48     -54     -60      10      69      72     -66     -63      11
      66      75     -69     -45      10      81      72     -78     -84      11
%FLAG EXCLUDED_ATOMS_LIST                                                       
%FORMAT(10I8)                                                                   
       2       3       4       5       6       7      10      11      12      13
      15      17      19      21       3       4       5       6       7       8
      10      11      12      13      14      15      19       4       5       6
       7      10      11      15      19       5       6       7       8       9
      10      11      12      13      15      31       6       7       8      10
      15       7       8       9      11      31      32       8       9      31
       9      31      32      33      34      35      31      32      11      15
      19      12      13      14      15      13      14      14       0      16
      17      19      20      21      17      18      19      20      21      22
      23      24      25      26      28      18      19      20      21      23
      24      26      19      20      21      23      24      26      20      21
      24      21      24       0      23      24      25      26      27      30
      24      25      26      27      28      29      30      25      26      27
      28      30      26      27      28      29      30      27      28      29
      28      29      30      29      30      30       0      32      33      34
      35      33      34      35      34      35      35       0
%FLAG HBOND_ACOEF                                                               
%FORMAT(5E16.8)                                                                 

%FLAG HBOND_BCOEF                                                               
%FORMAT(5E16.8)                                                                 

%FLAG HBCUT                                                                     
%FORMAT(5E16.8)                                                                 

%FLAG AMBER_ATOM_TYPE                                                           
%FORMAT(20a4)                                                                   
nx  c2  c1  c1  c1  n   c1  c   o   hn  c   o   os  c1  c1  ce  c1  c1  ce  c1  
c1  o   c   n   ns  c1  c   c1  o   hn  os  c3  c1  c1  c1  
%FLAG TREE_CHAIN_CLASSIFICATION                                                 
%FORMAT(20a4)                                                                   
BLA BLA BLA BLA BLA BLA BLA BLA BLA BLA BLA BLA BLA BLA BLA BLA BLA BLA BLA BLA 
BLA BLA BLA BLA BLA BLA BLA BLA BLA BLA BLA BLA BLA BLA BLA 
%FLAG JOIN_ARRAY                                                                
%FORMAT(10I8)                                                                   
       0       0       0       0       0       0       0       0       0       0
       0       0       0       0       0       0       0       0       0       0
       0       0       0       0       0       0       0       0       0       0
       0       0       0       0       0
%FLAG IROTAT                                                                    
%FORMAT(10I8)                                                                   
       0       0       0       0       0       0       0       0       0       0
       0       0       0       0       0       0       0       0       0       0
       0       0       0       0       0       0       0       0       0       0
       0       0       0       0       0
%FLAG RADIUS_SET                                                                
%FORMAT(1a80)                                                                   
modified Bondi radii (mbondi)                                                   
%FLAG RADII                                                                     
%FORMAT(5E16.8)                                                                 
  1.55000000E+00  1.70000000E+00  1.70000000E+00  1.70000000E+00  1.70000000E+00
  1.55000000E+00  1.70000000E+00  1.70000000E+00  1.50000000E+00  1.30000000E+00
  1.70000000E+00  1.50000000E+00  1.50000000E+00  1.70000000E+00  1.70000000E+00
  1.70000000E+00  1.70000000E+00  1.70000000E+00  1.70000000E+00  1.70000000E+00
  1.70000000E+00  1.50000000E+00  1.70000000E+00  1.55000000E+00  1.55000000E+00
  1.70000000E+00  1.70000000E+00  1.70000000E+00  1.50000000E+00  1.30000000E+00
  1.50000000E+00  1.70000000E+00  1.70000000E+00  1.70000000E+00  1.70000000E+00
%FLAG SCREEN                                                                    
%FORMAT(5E16.8)                                                                 
  7.90000000E-01  7.20000000E-01  7.20000000E-01  7.20000000E-01  7.20000000E-01
  7.90000000E-01  7.20000000E-01  7.20000000E-01  8.50000000E-01  8.50000000E-01
  7.20000000E-01  8.50000000E-01  8.50000000E-01  7.20000000E-01  7.20000000E-01
  7.20000000E-01  7.20000000E-01  7.20000000E-01  7.20000000E-01  7.20000000E-01
  7.20000000E-01  8.50000000E-01  7.20000000E-01  7.90000000E-01  7.90000000E-01
  7.20000000E-01  7.20000000E-01  7.20000000E-01  8.50000000E-01  8.50000000E-01
  8.50000000E-01  7.20000000E-01  7.20000000E-01  7.20000000E-01  7.20000000E-01
%FLAG IPOL                                                                      
%FORMAT(1I8)                                                                    
       0
