LIG
    31
  83.9620000 154.9770000  14.3230000  84.6170000 153.8330000  14.7240000
  82.6040000 154.9700000  14.0510000  83.9500000 152.6530000  14.8670000
  81.9330000 153.7570000  14.2000000  82.5950000 152.6250000  14.6000000
  84.3190000 151.2630000  15.2700000  82.1560000 151.2240000  14.8370000
  83.3710000 150.5300000  14.4740000  83.7030000 151.0740000  16.6430000
  82.2040000 151.0280000  16.3380000  83.5090000 149.4620000  13.5950000
  84.0080000 152.1660000  17.4330000  81.7100000 149.7820000  16.6430000
  84.6490000 148.9350000  13.3590000  83.7100000 152.9770000  16.9930000
  82.2080000 149.1080000  16.1560000  84.8360000 156.0480000  11.8580000
  84.8600000 156.7670000  12.8950000  84.6890000 156.1950000  14.1840000
  85.0590000 158.1800000  12.8050000  85.2660000 156.8770000  15.3210000
  85.0770000 158.9450000  14.0050000  84.8590000 158.3300000  15.3310000
  85.2860000 160.1980000  13.9580000  85.1810000 158.6150000  11.9300000
  82.4550000 148.8730000  12.9030000  81.6560000 147.8490000  13.4050000
  82.2910000 147.0980000  14.5480000  80.2700000 148.2910000  13.7970000
  81.4810000 146.8240000  12.2760000
