LIG
    40
  83.4480000 148.8970000  19.1860000  82.8520000 150.0610000  19.9080000
  82.3370000 147.8680000  19.0160000  84.0950000 149.2820000  17.6630000
  84.6430000 148.1450000  20.2640000  85.4700000 148.9340000  17.4800000
  84.9900000 146.7450000  19.8180000  85.6920000 147.4180000  17.4290000
  85.9270000 146.8500000  18.7180000  87.2080000 146.3120000  19.0000000
  87.5020000 145.7900000  20.0990000  83.2730000 148.9270000  16.5400000
  83.1900000 149.9870000  15.5000000  83.8570000 151.1710000  15.6550000
  82.4270000 149.7450000  14.3850000  83.7560000 152.1400000  14.6640000
  82.3470000 150.7250000  13.4210000  82.9980000 151.9280000  13.5320000
  84.4820000 153.3830000  14.8670000  85.2300000 153.5060000  15.8870000
  84.4310000 154.5080000  14.0060000  83.8690000 154.4740000  13.1990000
  85.2040000 155.7240000  14.2970000  85.6990000 156.2870000  13.0360000
  84.2070000 156.7130000  14.8930000  86.2690000 155.5000000  12.2300000
  85.5360000 157.6750000  12.7420000  84.8300000 158.0660000  15.1140000
  85.1890000 158.6120000  13.7780000  85.1900000 159.8480000  13.5600000
  85.6620000 157.9940000  11.8190000  88.2450000 146.3720000  17.9390000
  89.2770000 147.3990000  18.3530000  88.9810000 148.7000000  18.0500000
  89.7830000 149.7920000  17.8930000  90.1800000 150.0950000  16.5780000
  90.2320000 150.6060000  18.8990000  90.9860000 151.1650000  16.2910000
  91.0500000 151.6990000  18.6430000  91.4060000 151.9480000  17.3360000
