%VERSION  VERSION_STAMP = V0001.000  DATE = 09/07/26  08:45:07                  
%FLAG TITLE                                                                     
%FORMAT(20a4)                                                                   
LIG                                                                             
%FLAG POINTERS                                                                  
%FORMAT(10I8)                                                                   
      36      10       2      36       4      53      13      70       0       0
     160       1      36      53      70      19      39      11      12       0
       0       0       0       0       0       0       0       0      36       0
       0
%FLAG ATOM_NAME                                                                 
%FORMAT(20a4)                                                                   
C1  C2  C3  C4  C5  C6  C7  O1  N1  H1  C8  C9  C10 O2  N2  C11 C12 O3  H2  C13 
S1  O4  O5  N3  C14 C15 C16 C17 N4  C18 O6  O7  C19 C20 C21 C22 
%FLAG CHARGE                                                                    
%FORMAT(5E16.8)                                                                 
  2.50088312E+00 -1.29201574E+00 -6.26300451E-01  2.40944362E+00 -2.82482095E-01
 -7.13567046E-01  4.81628145E+00 -4.92131478E+00 -4.89689690E+00  2.85886020E+00
  2.70533732E+00  4.97807725E+00 -6.44978309E-01 -4.90551605E+00 -4.35305236E+00
 -4.15468440E-03  5.36885447E+00 -4.76872124E+00  2.91587778E+00  1.84673899E+00
 -5.19608884E-01 -8.48521400E+00 -8.48521400E+00  1.60689708E+00  7.89646970E+00
  2.62714544E+00  2.78999813E+00  9.50311167E-01 -2.14981229E+00  6.92972202E+00
 -4.37286000E+00 -4.63810380E+00  4.79200934E+00 -6.44358750E-01 -6.44358750E-01
 -6.44358750E-01
%FLAG ATOMIC_NUMBER                                                             
%FORMAT(10I8)                                                                   
       6       6       6       6       6       6       6       8       7       1
       6       6       6       8       7       6       6       8       1       6
      16       8       8       7       6       6       6       6       7       6
       8       8       6       6       6       6
%FLAG MASS                                                                      
%FORMAT(5E16.8)                                                                 
  1.20100000E+01  1.20100000E+01  1.20100000E+01  1.20100000E+01  1.20100000E+01
  1.20100000E+01  1.20100000E+01  1.60000000E+01  1.40100000E+01  1.00800000E+00
  1.20100000E+01  1.20100000E+01  1.20100000E+01  1.60000000E+01  1.40100000E+01
  1.20100000E+01  1.20100000E+01  1.60000000E+01  1.00800000E+00  1.20100000E+01
  3.20600000E+01  1.60000000E+01  1.60000000E+01  1.40100000E+01  1.20100000E+01
  1.20100000E+01  1.20100000E+01  1.20100000E+01  1.40100000E+01  1.20100000E+01
  1.60000000E+01  1.60000000E+01  1.20100000E+01  1.20100000E+01  1.20100000E+01
  1.20100000E+01
%FLAG ATOM_TYPE_INDEX                                                           
%FORMAT(10I8)                                                                   
       1       2       2       1       2       2       1       3       4       5
       1       1       2       3       4       2       1       3       5       2
       6       3       3       7       2       2       2       2       8       1
       3       9      10       2       2       2
%FLAG NUMBER_EXCLUDED_ATOMS                                                     
%FORMAT(10I8)                                                                   
      10       9       5       8       3       3       6       3       7       3
       7       7       5       3       4       3       2       1       1       7
       8       5       4       5       5       4       5       4       4       6
       2       4       3       2       1       1
%FLAG NONBONDED_PARM_INDEX                                                      
%FORMAT(10I8)                                                                   
       1       2       4       7      11      16      22      29      37      46
       2       3       5       8      12      17      23      30      38      47
       4       5       6       9      13      18      24      31      39      48
       7       8       9      10      14      19      25      32      40      49
      11      12      13      14      15      20      26      33      41      50
      16      17      18      19      20      21      27      34      42      51
      22      23      24      25      26      27      28      35      43      52
      29      30      31      32      33      34      35      36      44      53
      37      38      39      40      41      42      43      44      45      54
      46      47      48      49      50      51      52      53      54      55
%FLAG RESIDUE_LABEL                                                             
%FORMAT(20a4)                                                                   
LIG 
%FLAG RESIDUE_POINTER                                                           
%FORMAT(10I8)                                                                   
       1
%FLAG BOND_FORCE_CONSTANT                                                       
%FORMAT(5E16.8)                                                                 
  3.36100000E+02  6.99130000E+02  2.67760000E+02  5.90600000E+02  4.27600000E+02
  4.03200000E+02  4.00100000E+02  3.08440000E+02  4.66850000E+02  2.50880000E+02
  3.97760000E+02  6.14490000E+02  2.74380000E+02  2.38970000E+02  4.28900000E+02
  3.17460000E+02  3.51310000E+02  2.82270000E+02  2.84580000E+02
%FLAG BOND_EQUIL_VALUE                                                          
%FORMAT(5E16.8)                                                                 
  1.41440000E+00  1.20950000E+00  1.48480000E+00  1.21900000E+00  1.37900000E+00
  1.01300000E+00  1.39900000E+00  1.44060000E+00  1.31850000E+00  1.50560000E+00
  1.33100000E+00  1.46570000E+00  1.72520000E+00  1.74220000E+00  1.33000000E+00
  1.39670000E+00  1.36210000E+00  1.42730000E+00  1.46560000E+00
%FLAG ANGLE_FORCE_CONSTANT                                                      
%FORMAT(5E16.8)                                                                 
  5.85950000E+01  5.82000000E+01  5.67000000E+01  6.62000000E+01  6.44000000E+01
  7.48600000E+01  7.79900000E+01  6.79000000E+01  4.83000000E+01  6.45000000E+01
  7.42000000E+01  6.87000000E+01  7.18850000E+01  4.76000000E+01  8.00800000E+01
  6.79000000E+01  5.73200000E+01  7.01000000E+01  6.37000000E+01  5.79000000E+01
  6.87450000E+01  7.58200000E+01  6.30880000E+01  1.14280000E+02  5.43000000E+01
  1.58500000E+02  1.32020000E+02  1.23190000E+02  6.68580000E+01  7.67000000E+01
  7.80000000E+01  7.57000000E+01  6.96000000E+01  8.66800000E+01  8.75600000E+01
  8.94300000E+01  1.01260000E+02  7.89600000E+01  6.33700000E+01
%FLAG ANGLE_EQUIL_VALUE                                                         
%FORMAT(5E16.8)                                                                 
  3.13330368E+00  3.12501337E+00  3.14159400E+00  2.03365852E+00  2.06681979E+00
  2.02667720E+00  2.15094469E+00  2.01096923E+00  2.05163542E+00  2.13192060E+00
  2.14762857E+00  2.15844961E+00  2.00712950E+00  2.05774407E+00  2.13122246E+00
  2.01096923E+00  3.14159400E+00  2.12267035E+00  2.21796536E+00  3.14159400E+00
  1.99735565E+00  2.22843734E+00  2.11080210E+00  1.09659084E+00  3.06427588E+00
  2.09806119E+00  1.87256456E+00  1.88216387E+00  1.73162916E+00  3.14159400E+00
  3.09237569E+00  1.79227938E+00  2.04273423E+00  2.13925098E+00  1.91864127E+00
  2.02144121E+00  2.15024656E+00  1.90398050E+00  1.92614619E+00
%FLAG DIHEDRAL_FORCE_CONSTANT                                                   
%FORMAT(5E16.8)                                                                 
  0.00000000E+00  2.17500000E+00  2.50000000E+00  6.50000000E-01  2.00000000E+00
  3.13333333E+00  2.70000000E+00  3.83333333E-01  1.40000000E+00  1.10000000E+00
  1.05000000E+01
%FLAG DIHEDRAL_PERIODICITY                                                      
%FORMAT(5E16.8)                                                                 
  2.00000000E+00  2.00000000E+00  2.00000000E+00  2.00000000E+00  1.00000000E+00
  2.00000000E+00  2.00000000E+00  3.00000000E+00  1.00000000E+00  2.00000000E+00
  2.00000000E+00
%FLAG DIHEDRAL_PHASE                                                            
%FORMAT(5E16.8)                                                                 
  3.14159400E+00  3.14159400E+00  3.14159400E+00  3.14159400E+00  0.00000000E+00
  0.00000000E+00  3.14159400E+00  0.00000000E+00  3.14159400E+00  3.14159400E+00
  3.14159400E+00
%FLAG SCEE_SCALE_FACTOR                                                         
%FORMAT(5E16.8)                                                                 
  1.20000000E+00  1.20000000E+00  1.20000000E+00  1.20000000E+00  1.20000000E+00
  1.20000000E+00  1.20000000E+00  1.20000000E+00  1.20000000E+00  0.00000000E+00
  0.00000000E+00
%FLAG SCNB_SCALE_FACTOR                                                         
%FORMAT(5E16.8)                                                                 
  2.00000000E+00  2.00000000E+00  2.00000000E+00  2.00000000E+00  2.00000000E+00
  2.00000000E+00  2.00000000E+00  2.00000000E+00  2.00000000E+00  0.00000000E+00
  0.00000000E+00
%FLAG SOLTY                                                                     
%FORMAT(5E16.8)                                                                 
  0.00000000E+00  0.00000000E+00  0.00000000E+00  0.00000000E+00  0.00000000E+00
  0.00000000E+00  0.00000000E+00  0.00000000E+00  0.00000000E+00  0.00000000E+00
  0.00000000E+00  0.00000000E+00
%FLAG LENNARD_JONES_ACOEF                                                       
%FORMAT(5E16.8)                                                                 
  6.96551276E+05  1.18640578E+06  2.00671338E+06  5.17507491E+05  8.92208123E+05
  3.76435470E+05  8.11497350E+05  1.38616450E+06  5.99897901E+05  9.44293233E+05
  1.71458823E+03  3.37137075E+03  9.87857350E+02  1.88178855E+03  1.34728399E-01
  1.96483601E+06  3.25035981E+06  1.53564503E+06  2.31672966E+06  8.72013948E+03
  4.90327872E+06  7.10207765E+05  1.20705609E+06  5.29641935E+05  8.28144322E+05
  1.82809059E+03  1.98533726E+06  7.23647490E+05  7.01106848E+05  1.20132739E+06
  5.15491878E+05  8.14793385E+05  1.52360475E+03  2.02772676E+06  7.16178718E+05
  7.02078680E+05  4.46121722E+05  7.65280989E+05  3.27367585E+05  5.18220260E+05
  9.46795083E+02  1.29636058E+06  4.55871651E+05  4.46307018E+05  2.83662575E+05
  8.43969952E+05  1.43239677E+06  6.30925504E+05  9.84684600E+05  2.23577481E+03
  2.34552991E+06  8.59569453E+05  8.52084164E+05  5.42502534E+05  1.02073671E+06
%FLAG LENNARD_JONES_BCOEF                                                       
%FORMAT(5E16.8)                                                                 
  5.24668528E+02  7.71958727E+02  1.13185062E+03  4.98871431E+02  7.38469198E+02
  4.69350655E+02  6.48597119E+02  9.55669738E+02  6.15165511E+02  8.01323529E+02
  1.46824710E+01  2.32108730E+01  1.22938581E+01  1.76168249E+01  7.34107347E-02
  7.82392141E+02  1.13447787E+03  7.63007119E+02  9.73020518E+02  2.93990844E+01
  1.09738109E+03  5.11427129E+02  7.51664026E+02  4.87196412E+02  6.32509514E+02
  1.46352678E+01  7.59208492E+02  4.98353106E+02  5.97113873E+02  8.81180204E+02
  5.64804067E+02  7.37244936E+02  1.57004457E+01  9.01618117E+02  5.82583725E+02
  6.77820248E+02  3.88758656E+02  5.74027680E+02  3.67361018E+02  4.79881022E+02
  1.01016461E+01  5.88395242E+02  3.79365004E+02  4.41089616E+02  2.87011518E+02
  5.90251928E+02  8.66911122E+02  5.62969425E+02  7.30206155E+02  1.71355763E+01
  8.73669684E+02  5.75038595E+02  6.72777963E+02  4.38146883E+02  6.63431737E+02
%FLAG BONDS_INC_HYDROGEN                                                        
%FORMAT(10I8)                                                                   
      24      27       6      42      54       6
%FLAG BONDS_WITHOUT_HYDROGEN                                                    
%FORMAT(10I8)                                                                   
       0      57       1       0       3       1       0       6       1       3
       9       1       6      12       2       9      18       3       9      15
       1      12      15       2      18      21       4      18      24       5
      24      30       7      30      33       8      30      36       9      33
      39       4      33      42       5      36      45       2      42      48
       5      45      48      10      48      51       4      57      69      11
      60      63      12      60      66      12      60      69      13      60
      72      14      69      75      11      72      78       2      75      81
       2      78      84      15      81      84      15      84      87      16
      87      90       4      87      93      17      93      96      18      96
      99      19      96     102      19      96     105      19
%FLAG ANGLES_INC_HYDROGEN                                                       
%FORMAT(10I8)                                                                   
      18      24      27       9      27      24      30      14      33      42
      54       9      48      42      54       9
%FLAG ANGLES_WITHOUT_HYDROGEN                                                   
%FORMAT(10I8)                                                                   
       0      57      69       1       0       3       9       2       0       6
      12       3       3       0      57       4       3       0       6       4
       3       9      18       5       3       9      15       4       6       0
      57       4       6      12      15       6       9      18      21       7
       9      18      24       8       9      15      12       3      15       9
      18       5      18      24      30      10      21      18      24      11
      24      30      33      12      24      30      36      13      30      33
      39      15      30      33      42      16      30      36      45      17
      33      30      36      18      33      42      48      19      36      45
      48      20      39      33      42      11      42      48      45      21
      42      48      51      11      45      48      51      22      57      69
      60      23      57      69      75      24      60      69      75      23
      60      72      78      25      63      60      66      26      63      60
      69      27      63      60      72      28      66      60      69      27
      66      60      72      28      69      60      72      29      69      75
      81      30      72      78      84      31      75      81      84      31
      78      84      81      32      78      84      87      33      81      84
      87      33      84      87      90      34      84      87      93      35
      87      93      96      36      90      87      93      37      93      96
      99      38      93      96     102      38      93      96     105      38
      99      96     102      39      99      96     105      39     102      96
     105      39
%FLAG DIHEDRALS_INC_HYDROGEN                                                    
%FORMAT(10I8)                                                                   
       9      18      24      27       3      21      18      24      27       5
      21      18     -24      27       3      27      24      30      33       4
      27      24      30      36       4      30      33      42      54       3
      39      33      42      54       5      39      33     -42      54       3
      45      48      42      54       3      51      48      42      54       5
      51      48     -42      54       3      18      30     -24     -27      10
      33      48     -42     -54      10
%FLAG DIHEDRALS_WITHOUT_HYDROGEN                                                
%FORMAT(10I8)                                                                   
       0      57      69      60       1       0      57      69      75       1
       0       3       9      18       1       0       3       9      15       1
       0       6     -12      15       1       3       0      57      69       1
       3       0       6      12       1       3       9      18      21       2
       3       9      18      24       2       3       9     -15      12       1
       6       0      57      69       1       6       0       3       9       1
       6      12     -15       9       1      57       0       3       9       1
       9      18      24      30       3      57       0       6      12       1
      12      15       9      18       1      15       9      18      21       2
      15       9      18      24       2      18      24      30      33       4
      18      24      30      36       4      21      18      24      30       3
      24      30      33      39       2      24      30      33      42       2
      24      30      36      45       1      30      33      42      48       3
      30      36     -45      48       1      33      30      36      45       1
      33      42     -48      45       3      33      42      48      51       3
      36      30      33      39       2      36      30      33      42       2
      36      45     -48      42       1      36      45      48      51       1
      39      33      42      48       3      57      69      60      63       6
      57      69      60      66       6      57      69      60      72       6
      57      69      75      81       1      60      69      75      81       1
      60      72      78      84       1      63      60      69      75       6
      63      60      72      78       1      66      60      69      75       6
      66      60      72      78       1      69      60      72      78       1
      69      75      81      84       1      72      60      69      75       6
      72      78      84      81       1      72      78      84      87       1
      75      81      84      78       1      75      81      84      87       1
      78      84      87      90       3      78      84      87      93       3
      81      84      87      90       3      81      84      87      93       3
      84      87      93      96       7      87      93      96      99       8
      87      93      96     102       8      87      93      96     105       8
      90      87      93      96       9      90      87     -93      96       7
      57       0      -6      -3      10      18       3      -9     -15      10
       9      24     -18     -21      11      33      36     -30     -24      10
      30      42     -33     -39      11      45      42     -48     -51      11
      87      78     -84     -81      10      84      90     -87     -93      10
%FLAG EXCLUDED_ATOMS_LIST                                                       
%FORMAT(10I8)                                                                   
       2       3       4       5       6       7      20      21      24      26
       3       4       5       6       7       8       9      20      24       4
       5       6      20      24       5       6       7       8       9      10
      11      20       6       7      20       7       8       9       8       9
      10      11      12      13       9      10      11      10      11      12
      13      14      15      16      11      12      13      12      13      14
      15      16      17      19      13      14      15      16      17      18
      19      14      15      16      17      18      15      17      19      16
      17      18      19      17      18      19      18      19      19       0
      21      22      23      24      25      26      28      22      23      24
      25      26      27      28      29      23      24      25      26      27
      24      25      26      27      25      26      27      28      29      26
      27      28      29      30      27      28      29      30      28      29
      30      31      32      29      30      31      32      30      31      32
      33      31      32      33      34      35      36      32      33      33
      34      35      36      34      35      36      35      36      36       0
%FLAG HBOND_ACOEF                                                               
%FORMAT(5E16.8)                                                                 

%FLAG HBOND_BCOEF                                                               
%FORMAT(5E16.8)                                                                 

%FLAG HBCUT                                                                     
%FORMAT(5E16.8)                                                                 

%FLAG AMBER_ATOM_TYPE                                                           
%FORMAT(20a4)                                                                   
ce  c1  c1  ce  c1  c1  c   o   ns  hn  c2  c   c1  o   ns  c1  c   o   hn  c1  
s6  o   o   n3  c1  c1  c1  c1  n   c   o   os  c3  c1  c1  c1  
%FLAG TREE_CHAIN_CLASSIFICATION                                                 
%FORMAT(20a4)                                                                   
BLA BLA BLA BLA BLA BLA BLA BLA BLA BLA BLA BLA BLA BLA BLA BLA BLA BLA BLA BLA 
BLA BLA BLA BLA BLA BLA BLA BLA BLA BLA BLA BLA BLA BLA BLA BLA 
%FLAG JOIN_ARRAY                                                                
%FORMAT(10I8)                                                                   
       0       0       0       0       0       0       0       0       0       0
       0       0       0       0       0       0       0       0       0       0
       0       0       0       0       0       0       0       0       0       0
       0       0       0       0       0       0
%FLAG IROTAT                                                                    
%FORMAT(10I8)                                                                   
       0       0       0       0       0       0       0       0       0       0
       0       0       0       0       0       0       0       0       0       0
       0       0       0       0       0       0       0       0       0       0
       0       0       0       0       0       0
%FLAG RADIUS_SET                                                                
%FORMAT(1a80)                                                                   
modified Bondi radii (mbondi)                                                   
%FLAG RADII                                                                     
%FORMAT(5E16.8)                                                                 
  1.70000000E+00  1.70000000E+00  1.70000000E+00  1.70000000E+00  1.70000000E+00
  1.70000000E+00  1.70000000E+00  1.50000000E+00  1.55000000E+00  1.30000000E+00
  1.70000000E+00  1.70000000E+00  1.70000000E+00  1.50000000E+00  1.55000000E+00
  1.70000000E+00  1.70000000E+00  1.50000000E+00  1.30000000E+00  1.70000000E+00
  1.80000000E+00  1.50000000E+00  1.50000000E+00  1.55000000E+00  1.70000000E+00
  1.70000000E+00  1.70000000E+00  1.70000000E+00  1.55000000E+00  1.70000000E+00
  1.50000000E+00  1.50000000E+00  1.70000000E+00  1.70000000E+00  1.70000000E+00
  1.70000000E+00
%FLAG SCREEN                                                                    
%FORMAT(5E16.8)                                                                 
  7.20000000E-01  7.20000000E-01  7.20000000E-01  7.20000000E-01  7.20000000E-01
  7.20000000E-01  7.20000000E-01  8.50000000E-01  7.90000000E-01  8.50000000E-01
  7.20000000E-01  7.20000000E-01  7.20000000E-01  8.50000000E-01  7.90000000E-01
  7.20000000E-01  7.20000000E-01  8.50000000E-01  8.50000000E-01  7.20000000E-01
  9.60000000E-01  8.50000000E-01  8.50000000E-01  7.90000000E-01  7.20000000E-01
  7.20000000E-01  7.20000000E-01  7.20000000E-01  7.90000000E-01  7.20000000E-01
  8.50000000E-01  8.50000000E-01  7.20000000E-01  7.20000000E-01  7.20000000E-01
  7.20000000E-01
%FLAG IPOL                                                                      
%FORMAT(1I8)                                                                    
       0
