Cpptraj Generated Restart                                                       
   33  4.0000001E-01
  84.6742325 149.2696838  18.1828308  83.5992737 149.9974365  17.5501976
  84.4510880 148.5103302  16.9206581  82.8623428 150.3055267  16.5583229
  84.0076065 148.3653412  15.7404099  83.0002213 149.4475098  15.2474718
  81.6791077 148.9831696  14.7621136  83.2598343 150.2302094  13.8204165
  82.1025620 149.6730347  13.8098946  83.7619171 151.4350586  13.9101038
  85.2144852 151.7793274  13.8985977  82.8714066 152.6199951  14.1495180
  85.1717834 153.0398712  14.1575794  83.7258911 153.5702667  14.3454847
  84.9008636 154.3625183  14.6164312  85.0360870 155.6978455  14.3251038
  85.4166946 156.2804871  13.0045815  84.9165115 156.6927795  15.1317062
  85.5095139 155.6148071  11.9812698  85.5182343 157.7635651  12.9018860
  85.0066681 157.8854523  15.0224676  85.3206635 158.8180084  13.8925638
  85.4936142 160.0106201  13.8313942  85.8388138 158.0442657  11.9826403
  83.6108322 148.4418182  18.3882751  81.4813843 147.0299377  22.9367104
  82.0512466 146.8463135  21.3352833  82.5553741 147.9129028  20.6359253
  82.2578125 145.6841278  20.6978951  82.6154785 149.1482544  21.0846100
  82.9940109 147.5612488  19.3826160  82.5385056 145.2086182  19.6650448
  82.8842010 146.1543427  18.9730206
