Cpptraj Generated Restart                                                       
   35  4.0000001E-01
  83.6239090 154.1161957  14.1549778  82.6384354 153.2388000  14.7587223
  83.9319611 152.7366943  14.0287733  82.1181564 151.9500885  15.2638998
  84.0068741 151.4775238  14.1166725  82.9401016 150.8514099  14.8609514
  81.0420151 151.4722137  15.9500895  82.3765488 149.7500763  15.2350283
  80.9798813 150.2898560  15.0907822  81.2786407 150.8526917  17.1645107
  82.2720718 149.4753876  16.5799580  79.8363190 149.5031586  14.7675123
  81.3192139 149.4907074  17.6000309  79.7856827 148.5180511  14.0339947
  85.1856155 155.3683624  11.9134893  84.9266968 155.9693604  12.9657421
  84.0659790 155.4401245  13.9820814  85.5354004 157.2844238  13.1298981
  83.9575806 156.3815460  14.8899956  85.3656006 158.1960449  14.3219233
  84.4394684 157.3882294  15.1113558  85.6214371 159.3633575  14.4080505
  86.0237122 157.6654968  12.3280878  78.7283936 150.1102448  15.2901249
  77.4315033 149.5119476  15.4282570  77.4251862 148.2586060  16.2026920
  76.5746689 150.4842682  16.1444626  76.9605713 149.3473358  14.1170807
  82.4399948 150.0814972  18.0083618  83.2920914 150.1240234  19.1895828
  82.6833725 150.1198273  20.5180206  84.6401291 149.6576385  19.2798862
  83.1572800 149.5336456  21.4901447  85.0345001 149.1118622  20.3542576
  84.2966232 149.0063324  21.3357048
