Cpptraj Generated Restart                                                       
 6188  4.0000001E-01
  89.8430252 181.0218964  24.4574089  90.8258057 181.0392609  24.2251663
  89.8270493 180.1401367  24.9496727  89.5984650 181.7287598  25.1361256
  88.9166794 180.9046326  23.2240067  87.8879013 180.8104858  23.5716553
  88.9536743 182.2316742  22.4126987  89.9525528 182.3982849  22.0094814
  88.2506409 182.0867920  21.5924225  88.4109955 183.4900665  23.2166538
  87.3217087 183.5223999  23.1942043  88.5866394 183.3635406  24.2849426
  89.0227661 185.0926971  22.7094364  88.1166534 185.6006622  21.1461849
  87.1348419 185.9029083  21.5105972  88.5763397 186.4535675  20.6468391
  87.9213638 184.8251801  20.4054966  89.2794189 179.6200562  22.3864822
  90.4188004 179.0820923  22.3689919  88.2189178 179.0917053  21.7314396
  87.3740616 179.6436768  21.6908417  88.3168411 177.9691162  20.7383194
  88.9306259 177.1710663  21.1560402  86.9241943 177.3409424  20.5497875
  86.1304779 178.0877838  20.5314713  86.7929764 176.5407562  19.2558212
  87.5034409 175.7146149  19.2272434  85.8383026 176.0171661  19.2052956
  86.9073105 177.1684265  18.3720417  86.6632004 176.4168091  21.7539864
  85.8158569 175.7697296  21.5272942  87.5360107 175.7681885  21.8288269
  86.2373505 177.0774994  23.0776577  85.3149338 177.6381073  22.9260979
  86.0021362 176.3096619  23.8146801  87.0252151 177.6905365  23.5153027
  89.0664520 178.4974518  19.4524479  88.9550858 179.6730804  19.1078472
  89.6482086 177.5925140  18.6774578  89.7209320 176.6304016  18.9760475
  90.3797150 177.9293823  17.4006920  89.9068298 178.7670135  16.8880024
  91.8733292 178.3279114  17.6509628  92.3590012 178.9621429  16.9093628
  91.8188934 179.0895081  18.4288445  92.8735428 177.2627258  18.0846176
  92.6384277 176.1011810  17.8503819  93.9257965 177.6383362  18.7601662
  94.6175232 176.9575348  19.0396786  94.1702118 178.6165619  18.8188725
  90.2022705 176.8012238  16.3994274  90.5071259 177.0595245  15.2350626
  89.5877151 175.6436310  16.6891937  89.5152893 175.4190521  17.6712456
  89.0739975 174.7344513  15.6367617  89.9231033 174.2853394  15.1215792
  88.1801147 173.6532593  16.2007561  88.7459641 173.1803284  17.0034084
  87.3210831 174.1588287  16.6418514  87.6897812 172.6633911  15.2342329
  88.5565414 171.7046814  14.6276474  89.6299362 171.7845917  14.7161980
  87.9836197 170.5796356  13.9116602  88.5631409 169.8487244  13.3673048
  86.5959473 170.3628845  13.8661556  86.1086502 169.5127411  13.4120741
  85.7585220 171.3617401  14.4833546  84.6840897 171.2551727  14.5088043
  86.2823334 172.5325775  15.1150303  85.6563568 173.2495880  15.6253729
  88.1726837 175.4910889  14.6054316  87.3120499 176.2570953  14.9825830
  88.3869171 175.3579559  13.3120499  89.0152359 174.6133728  13.0457468
  87.5135345 175.9687042  12.2762966  87.2516556 176.9882965  12.5590658
  88.2522736 176.0418396  10.9597807  89.1892319 176.5780945  11.1102743
  88.6334839 175.0737000  10.6350079  87.4522247 176.6372681   9.7991295
  86.4278183 177.2559967  10.0875893  87.8978348 176.4206390   8.6121798
  86.1984253 175.2496185  12.1932497  86.0723495 174.2478790  11.4902592
  85.1922455 175.7161713  12.9602633  85.3591995 176.5407257  13.5191336
  83.8888550 175.0663757  13.1286287  84.0770493 174.1157990  13.6277208
  83.0128250 175.8140259  14.1682920  82.0968323 175.2548370  14.3590040
  83.6532593 175.9804382  15.5326977  84.4607697 176.7100830  15.5932198
  82.8980560 176.2185516  16.2817421  84.0606689 174.9937897  15.7532310
  82.7199097 177.1957397  13.7869396  82.0376892 177.5478363  14.3633080
  83.0075455 174.8008270  11.8604374  81.9235916 174.2402344  11.9152098
  83.4301300 175.2285614  10.6674137  84.3419800 175.6555939  10.5882092
  82.9001999 174.7410126   9.4290571  81.8250504 174.5840912   9.5158396
  83.0679932 175.8940277   8.3443909  82.4308319 175.5503845   7.5295024
  82.7299347 176.8773956   8.6712036  84.3775940 176.0048523   7.9545760
  84.7328110 176.7896423   8.3782825  83.4324265 173.3994751   8.8957729
  82.8507996 172.7916412   7.9946866  84.5592422 172.8810577   9.4523106
  85.0595474 173.5287933  10.0441332  85.2047806 171.5818024   9.0690575
  85.3771744 171.5252380   7.9942617  86.5538330 171.4741821   9.7212658
  86.4350586 171.7285461  10.7744932  87.0622330 170.5147552   9.6257334
  87.5908813 172.4550476   9.1713619  87.2257843 173.4776459   9.2666521
  88.8101730 172.3869781  10.0961866  89.2453766 171.4375153   9.7843981
  89.5540924 173.1729279   9.9659071  88.5509109 172.3674316  11.1547251
  88.1053848 172.2522736   7.7409296  87.2539215 172.0997314   7.0777273
  88.5308151 173.1675720   7.3294435  88.7724304 171.3903656   7.7576518
  84.3816147 170.2877655   9.2452431  84.7172241 169.2854309   8.5652676
  83.4588928 170.1947479  10.1844435  83.5108032 170.8471222  11.4953222
  82.9780731 171.7947540  11.4159946  84.5661163 170.9993591  11.7216606
  82.8101349 169.9604797  12.4742022  82.2341232 170.6198883  13.1234303
  83.5044556 169.3238525  13.0225830  81.8890076 169.0610046  11.6186781
  80.9789581 169.6531372  11.5223103  81.6500473 168.0863190  12.0440836
  82.5134201 169.0360413  10.2038660  83.1590652 168.1648712  10.0929804
  81.5110245 169.0463104   9.0232878  81.2152863 167.9685364   8.4352112
  80.9516525 170.2107697   8.6877804  81.2895203 171.1087799   9.0032434
  79.7483597 170.2832489   7.8070483  79.1183090 169.4242401   8.0377979
  79.0329971 171.6247253   7.8994265  78.0797958 171.5409088   7.3774190
  78.7229080 172.1074524   9.2865887  79.6722717 172.2616577   9.7994461
  78.0183640 172.9382782   9.3247900  78.2053986 171.3317719   9.8510294
  79.7843704 172.6763916   7.3622193  79.1668777 173.4046478   7.2625461
  80.0786667 170.0792542   6.2956104  79.1779785 169.8205872   5.4832439
  81.3315430 170.1530762   5.9164414  82.0056152 170.5386658   6.5622439
  81.8923187 169.7452545   4.6386409  81.1357803 170.1228333   3.9507596
  83.1737442 170.4670563   4.4253330  83.6615067 170.1518707   3.5029197
  82.9897003 171.5399170   4.3686433  83.9777985 170.3426361   5.5408301
  84.4237442 171.1627197   5.7648964  82.0063019 168.2216949   4.5602808
  82.0142517 167.7350311   3.3760819  81.9971771 167.4467163   5.6593046
  81.9224167 167.9321747   6.5418320  82.1047134 165.9751892   5.6712742
  82.3453217 165.7586060   6.7120910  80.7091599 165.3726959   5.4005423
  80.3919449 165.7671967   4.4352188  80.8393784 164.2905273   5.3930187
  79.7189178 165.6619415   6.4636893  79.8005753 165.1874390   7.7578869
  78.7980423 165.7921143   8.3945265  78.6850739 165.7560425   9.4679966
  78.0993805 166.6289673   7.5858035  77.2684555 167.0934753   7.9232841
  78.7311096 166.6088104   6.3443379  78.3669586 167.0760345   5.4412961
  83.2309494 165.3724823   4.8649263  83.0791092 164.3942719   4.1299648
  84.5030212 165.8927307   5.0321417  84.6212692 166.6551361   5.6839447
  85.7311630 165.5087738   4.3189063  85.5926895 165.6966553   3.2541869
  86.8646774 166.4137268   4.9177165  86.8635254 166.2783813   5.9992795
  87.8134308 166.0732422   4.5029330  86.6120148 167.9248810   4.4940381
  86.9890137 167.8842621   3.4721172  85.5376816 168.0886993   4.4099221
  87.3009567 169.2400665   5.5776172  88.9825058 169.2018433   4.9729333
  89.0686874 168.9768524   3.9098959  89.5412064 170.0831451   5.2880087
  89.4199829 168.3475342   5.4895058  86.0610504 164.0197296   4.3871722
  86.6738663 163.4683075   3.4919202  85.6641464 163.3591919   5.4668326
  85.1370926 163.8691559   6.1612902  86.0259933 161.9672852   5.7337093
  87.1150589 161.9946747   5.7694707  85.7201843 161.6551819   7.1662140
  85.9723892 160.6138916   7.3667750  86.2752228 162.2898560   7.8570223
  84.2280655 161.7666473   7.4171195  83.6851120 163.0275726   7.7477922
  84.2574081 163.9350128   7.8719645  82.3094482 163.1504059   7.9120493
  81.9932709 164.1105957   8.2921057  81.4291382 162.0847015   7.6598897
  80.1372604 162.2184296   7.8859382  79.9668045 163.1586609   7.9782562
  81.9637299 160.8051605   7.4227915  81.2697449 159.9826965   7.3314242
  83.4081726 160.6289673   7.2750826  83.7662277 159.6220398   7.1192694
  85.3820724 160.9648895   4.8285494  85.9636307 159.8857880   4.6578040
  84.1692123 161.2636871   4.1961632  83.8119354 162.1380768   4.5537777
  83.4161377 160.5346069   3.2334116  83.4082260 159.4658813   3.4475930
  81.9344940 160.9856720   3.2499545  81.5129547 160.7004852   4.2138395
  82.0272980 162.0705261   3.1990008  81.0595551 160.4869385   2.0858004
  81.5380707 160.6385498   1.1182580  80.6907196 159.0199890   2.3140388
  80.0751877 158.9485931   3.2107704  80.0371475 158.7025299   1.5015341
  81.6168671 158.4458313   2.3405805  79.7459030 161.3105469   2.0548172
  79.9568405 162.3759613   2.1470068  79.2686615 161.2047424   1.0805739
  79.0818329 160.9448853   2.8380232  84.1511230 160.7745514   1.9063126
  84.3613052 159.7941437   1.1710788  84.5435181 162.0191650   1.6460620
  84.3539734 162.7722321   2.2918561  85.4263687 162.3419800   0.5176184
  86.4470215 162.3359375   0.9001552  85.3452225 161.6095581  -0.2855431
  85.2737274 163.6782837  -0.1824694  84.2410736 164.3398438  -0.0684014
  86.3780594 164.1734467  -0.7458246  87.1504440 163.5305176  -0.8466488
  86.3666077 165.3597260  -1.6019187  85.5342560 166.0009003  -1.3117611
  87.7545547 166.1247406  -1.3208519  87.6363525 167.0962982  -1.8006505
  87.8672485 166.2326813  -0.2420792  88.9124527 165.3977661  -1.7687740
  89.6776199 165.9656525  -1.6520759  86.1959000 164.9481659  -3.0908089
  86.1615372 163.7665558  -3.4737346  86.0893021 165.9451752  -3.9431298
  86.4566803 166.8465271  -3.6734951  85.8987885 165.7286224  -5.3555017
  85.6705627 166.6883240  -5.8191772  87.2638550 165.2737885  -6.0219159
  88.0923157 165.8080139  -5.5567737  87.4723587 164.2370605  -5.7576418
  87.2695236 165.4962921  -7.5405512  86.7481689 166.5092926  -8.0433836
  88.0388947 164.7332001  -8.2263355  84.6436615 164.8285980  -5.7792144
  84.7976685 163.8337097  -6.4575157  83.4980698 165.1912537  -5.2938766
  83.4214935 166.0442810  -4.7585430  82.1539230 164.6597137  -5.6689086
  82.2732849 163.6103516  -5.9385619  81.2625656 164.6501617  -4.4972482
  81.0087204 165.6899567  -4.2910609  80.3246002 164.1357727  -4.7063470
  81.9180298 163.9600067  -3.2268338  82.4182129 163.0293884  -3.4949141
  82.7165756 164.5828552  -2.8237231  80.8513184 163.7660980  -1.7721547
  79.8042068 162.3322144  -2.2714090  80.4181595 161.4321747  -2.2381852
  78.9848633 162.2245789  -1.5606388  79.3701172 162.5139465  -3.2545872
  81.6029968 165.3513184  -6.9278631  82.0384903 166.4743652  -7.3362746
  80.5115662 164.7965698  -7.5628033  80.2128754 163.8635712  -7.3170648
  79.6066360 165.5698853  -8.4015188  80.1503677 166.4032593  -8.8464422
  79.0223999 164.6404266  -9.5171795  79.8530045 164.1282806 -10.0028744
  78.5606766 163.7566071  -9.0769644  78.0692139 165.2919617 -10.5269041
  77.1361618 165.6016235 -10.0561457  78.4767227 166.2113647 -10.9473228
  77.6893692 164.3470001 -11.6642427  77.9200134 163.0983429 -11.6092615
  77.0694199 164.7955627 -12.6619320  78.5860291 166.3036804  -7.5114169
  77.9181747 165.6723480  -6.6509714  78.3514404 167.6321106  -7.7423334
  78.8849182 168.0849762  -8.4706259  77.2161636 168.3605499  -7.1292324
  77.0078812 167.8139191  -6.2094913  77.5861130 169.7401123  -6.6260657
  78.0591431 170.2703705  -7.4526124  76.7322617 170.2356415  -6.1640143
  78.7376556 169.6871643  -5.5605769  78.4853287 168.9461670  -4.8020568
  79.7055664 169.3976593  -5.9697752  79.0335617 171.0344238  -4.8633208
  78.1464615 171.8108063  -4.4021492  80.2382507 171.2852325  -4.6726956
  75.9660034 168.4685059  -8.0638514  76.1333847 168.5037384  -9.2713556
  74.7742462 168.4530945  -7.4207449  74.8497696 168.4928131  -6.4143562
  73.4955521 168.8397522  -8.0595274  73.5848465 169.0963898  -9.1151123
  72.4082718 167.7801971  -7.7968125  72.4503098 167.7069702  -6.7100878
  71.4211960 168.1800232  -8.0290394  72.6557159 166.4003754  -8.4896717
  72.4533615 166.2850952  -9.9018106  71.8723221 167.0022736 -10.4625635
  72.9238510 165.1433258 -10.5448380  72.6237030 165.0694580 -11.5796604
  73.4146729 164.0871277  -9.7769833  73.7136917 163.1378021 -10.1962538
  73.4559555 164.1677551  -8.3381395  73.8271561 163.3619843  -7.7222157
  73.1293945 165.3489838  -7.7434602  73.1958237 165.4833679  -6.6739092
  72.8672943 170.1462708  -7.4706764  72.9544830 170.4446716  -6.2691855
  72.4018478 170.9658508  -8.3908243  72.4509583 170.6549377  -9.3505182
  72.0585709 172.3672333  -8.1236992  72.3834763 172.6714935  -7.1287298
  72.7329712 173.3254395  -9.1064167  72.4188461 174.3089600  -8.7569618
  73.8133926 173.3102722  -8.9630585  72.3610764 173.1879272 -10.5701256
  72.8541412 172.1407471 -11.3651114  72.3109894 172.3235168 -12.5710182
  72.5357666 171.5936737 -13.3346996  71.4103546 173.3386536 -12.5705042
  70.9534988 173.5826263 -13.4376049  71.4469757 173.9182129 -11.2996531
  70.8013916 174.7317200 -11.0032511  70.5493546 172.6478729  -8.1031389
  70.1244354 173.4683228  -7.3020020  69.7400970 171.9086304  -8.8704100
  70.1457901 171.0598297  -9.2379141  68.2999115 172.0601501  -8.9263515
  68.0737076 173.1187286  -9.0541391  67.8994064 171.5547638  -9.8051510
  67.6591721 171.4903259  -7.7015457  68.3066101 170.6993561  -6.9844551
  66.4435425 171.9784546  -7.3825755  66.0119934 172.5971527  -8.0542011
  65.6645432 171.5527344  -6.1739025  66.2417679 170.8548126  -5.5674272
  65.4403915 172.8534546  -5.3500566  64.9990158 173.6140594  -5.9940896
  64.8265381 172.5309448  -4.5090656  66.6630936 173.5177002  -4.8136563
  67.4370193 173.5527954  -5.5804105  66.4802399 174.5275574  -4.4464474
  67.2572098 172.8461761  -3.5886767  66.6565552 172.9186859  -2.6820021
  67.2143936 171.7739410  -3.7799251  68.6726227 173.1014252  -3.3181791
  69.3204041 172.6571198  -3.9530673  69.2136078 174.1134796  -2.6946385
  68.5831223 175.0875702  -2.1840780  67.5785370 175.0867157  -2.2885098
  68.9939423 175.8227997  -1.6266042  70.5384369 174.2873383  -2.5609126
  71.1292572 173.6704559  -3.0998750  70.9231339 175.1475525  -2.1973739
  64.3399124 170.8298492  -6.4223900  63.5541801 171.1249695  -7.3109789
  64.0533600 169.8663483  -5.5344687  64.6942139 169.7234650  -4.7670150
  62.8454628 169.0133514  -5.6401691  62.3510094 169.1046448  -6.6072693
  63.3052559 167.5134125  -5.5897017  63.7627373 167.2529602  -4.6352515
  62.2337608 166.4486542  -5.8955679  61.9400673 166.5360260  -6.9416146
  62.6097984 165.4327850  -5.7742052  61.3949776 166.6372375  -5.2255096
  64.3484573 167.3505402  -6.5377302  64.6588593 166.4458923  -6.6206799
  61.8882408 169.3811646  -4.4698391  62.2184372 169.3481140  -3.3267105
  60.6885910 169.8151703  -4.7954416  60.5077133 169.8421631  -5.7887478
  59.5097313 169.9987793  -3.9348199  59.5655861 169.3472900  -3.0627301
  59.3750420 171.4283600  -3.4717438  59.2738724 171.9430389  -4.4272361
  58.4162254 171.5400391  -2.9654787  60.4041138 171.9020233  -2.4825552
  61.4190178 171.6924438  -2.8204138  60.2160759 173.3607941  -2.2216394
  59.2539444 173.6028290  -1.7701726  60.9336586 173.7360687  -1.4920219
  60.2799187 173.9046631  -3.1640949  60.3085823 171.2988892  -1.0475173
  60.4198647 170.2158813  -1.1006948  61.1656227 171.8026123  -0.6004817
  59.3972321 171.6665192  -0.5759323  58.2044983 169.5117340  -4.6229801
  58.0834122 169.6253357  -5.8600445  57.2321320 169.0707092  -3.8119767
  57.5950241 168.9201050  -2.8815320  55.8691940 168.5434113  -4.1648951
  55.8431244 168.5411987  -5.2545834  55.6728821 167.1242523  -3.5821540
  55.7338676 167.1644135  -2.4946022  54.7288818 166.7405701  -3.9691389
  56.7126770 166.1318054  -4.0395813  57.6627121 165.4332428  -3.2101843
  58.3958855 164.7294769  -4.0918579  59.2657814 164.1127319  -3.9206653
  57.9021568 164.8071289  -5.3511786  58.2603951 164.2902832  -6.1415195
  56.8599052 165.7238617  -5.2940769  56.3399467 166.1621399  -6.1330981
  54.7785950 169.5381470  -3.6726899  54.9543495 170.3771973  -2.7718346
  53.5896339 169.4600067  -4.2904587  53.5326309 168.8325500  -5.0798655
  52.3592415 170.1688232  -3.8805151  52.6312485 171.2238770  -3.9117806
  51.2414932 169.8290558  -4.9044180  51.1086731 168.7561188  -5.0432243
  50.2982521 170.1537628  -4.4651480  51.3411980 170.6380310  -6.2206402
  50.8255577 171.8366089  -6.2656960  51.7459335 170.0929108  -7.2409949
  51.8942566 169.8148193  -2.4098229  52.0799065 168.6661835  -1.9137548
  51.3291817 170.8065643  -1.6818589  51.0631752 171.6286926  -2.2047637
  50.9170990 170.6344299  -0.3035801  51.7617149 170.2290955   0.2535768
  50.5740509 171.9281158   0.4150832  49.6804810 172.2145691  -0.1395100
  50.2761650 171.7625580   1.4504397  51.7695847 172.9518585   0.3917895
  52.9317284 172.5856323   0.7185445  51.5519371 174.0921478  -0.0304423
  49.8164253 169.6066284  -0.1698615  48.7399178 169.7065277  -0.7392914
  50.0422211 168.6261597   0.6979571  50.9058838 168.6541595   1.2208327
  49.2494316 167.4526520   1.0295745  49.9827881 166.8798065   1.5971602
  48.0357399 167.8459930   1.8948344  47.5030975 168.6363373   1.3659248
  47.3945503 166.9645844   1.9046500  48.4142494 168.2483521   3.3604426
  48.9589119 167.3547974   4.0841074  47.9061546 169.3520508   3.6965690
  48.7879028 166.5722198  -0.2010003  47.7879028 165.8489532  -0.1932808
  49.5559845 166.6905060  -1.3116790  50.3420906 167.3229065  -1.2647160
  49.5403099 165.7103577  -2.4432349  48.5162048 165.6283264  -2.8073542
  50.2687454 166.3178253  -3.6045077  50.0845833 165.7081909  -4.4891148
  49.8933296 167.3183746  -3.8191261  51.6932678 166.3923950  -3.4707351
  51.9183846 167.0783386  -2.8379595  50.1163177 164.3036346  -2.0100465
  51.0800591 164.2363892  -1.2531039  49.4685631 163.2722168  -2.5218561
  48.5995102 163.4675446  -2.9979823  49.8504486 161.8688202  -2.3240924
  50.3867264 161.8292084  -1.3759654  48.6358299 160.9587402  -2.2789593
  47.9566879 161.3671570  -1.5305845  48.1374702 160.8616028  -3.2434809
  49.2185135 159.2559204  -1.9830443  49.4262314 158.9845123  -3.2745876
  50.9712067 161.4393616  -3.2792664  50.7988853 161.6350098  -4.4402742
  52.0674515 160.8346558  -2.7382090  52.0666695 160.7586823  -1.7310708
  53.3231354 160.5855408  -3.4779749  53.0465202 160.5456696  -4.5315375
  54.3294830 161.6926727  -3.1689930  54.5305290 161.5563202  -2.1064057
  55.2435265 161.3980408  -3.6845756  53.9881859 163.1647644  -3.4536021
  53.1409187 163.6016998  -2.9250991  54.8624382 163.7240143  -3.1204128
  53.7886200 163.3861084  -4.9452643  54.1075134 162.5848999  -5.8684921
  53.2952499 164.5446930  -5.3943777  52.8740654 164.6511230  -6.3061762
  52.9146538 165.1989288  -4.7256265  53.8203773 159.0880432  -3.2162459
  53.4739571 158.5636902  -2.1461115  54.6204109 158.5323181  -4.1190462
  54.9216080 159.1167603  -4.8857293  55.3644257 157.3219452  -3.8010325
  55.1362267 157.0968933  -2.7592118  54.8290062 156.0308075  -4.5250401
  53.7403412 156.0813904  -4.5061512  55.2192764 155.8398438  -6.0151987
  56.3011627 155.8634491  -6.1458516  54.8535652 154.8928070  -6.4120030
  54.8172226 156.7095032  -6.5349746  55.3979034 154.7173004  -3.8788986
  55.0577812 154.7115936  -2.8433387  54.8731689 153.8532104  -4.2864847
  56.4750900 154.6576538  -4.0345087  56.8498421 157.4730988  -3.9228547
  57.2704239 157.9599304  -4.9391289  57.6112213 156.9215546  -2.9266984
  57.1653862 156.4667816  -2.1427927  59.0693359 157.2081757  -2.6972456
  59.4532433 157.4037170  -3.6984870  59.0729675 158.4781799  -1.7849751
  58.7824402 158.0849152  -0.8107889  60.5116692 159.0678864  -1.6918987
  60.6905785 159.7065430  -2.5568945  60.5322189 159.7466431  -0.8392741
  61.3109779 158.3292084  -1.6321456  58.1284180 159.6989899  -2.2440364
  58.4452019 159.8977966  -3.2678647  57.1025925 159.3733368  -2.0716159
  58.3220100 161.0308228  -1.4270254  59.3162003 161.4572601  -1.5606128
  57.6691017 161.7935181  -1.8514172  58.0097313 160.9900055  -0.3835140
  59.8617516 156.0576782  -2.0720744  59.2720413 155.4231110  -1.1723981
  61.1055832 155.6504211  -2.5480456  61.7646828 156.2090607  -3.7138920
  61.9864883 157.2429962  -3.4495711  61.1267853 156.0970917  -4.5906196
  62.9888458 155.3893127  -3.9858527  63.8533859 155.9914398  -3.7063837
  63.1268272 155.0601959  -5.0157804  62.8673363 154.1146545  -3.0843744
  63.7987862 153.6344604  -2.7845156  62.3424187 153.3370514  -3.6392426
  61.9443741 154.6081238  -1.9674375  61.2001152 153.8279572  -1.8077263
  62.6408424 155.0174103  -0.6494514  63.2716522 156.0606689  -0.5186611
  62.5515938 154.0963135   0.3282841  62.0247726 153.2547607   0.1429787
  63.3022575 154.0974426   1.5429255  63.6750450 155.1062012   1.7204819
  62.4638100 153.5282593   2.7669673  62.4249306 152.4501190   2.6114202
  63.1577225 153.7500458   4.0904379  63.3129997 154.8068085   4.3078246
  62.5940132 153.3494415   4.9329557  64.1273117 153.2550201   4.1446757
  60.9994469 154.0850220   2.8681796  60.4528656 154.1361694   1.9265118
  60.4057693 153.5977173   3.6415994  61.0570335 155.1161041   3.2169216
  64.5358505 153.2134094   1.3156942  64.3355865 152.1030121   0.9377774
  65.7709274 153.7224579   1.7049870  65.9442062 154.6690674   2.0115528
  66.9468765 152.8892059   1.7806224  66.8908386 152.1826630   0.9525189
  68.2124176 153.7344818   1.6727166  68.1644440 154.5395813   2.4059348
  69.0946121 153.1816864   1.9955763  68.6865540 154.3769379   0.2925485
  67.8696518 154.9436493  -0.1542332  69.8463974 155.3726654   0.5773433
  70.6922302 154.8934631   1.0703299  70.1363220 155.8969727  -0.3332329
  69.4555664 156.0830841   1.3058059  69.0415344 153.2743683  -0.6946145
  68.1878891 152.9582062  -1.2941408  69.8158340 153.5533295  -1.4092793
  69.3141785 152.3745117  -0.1432330  67.0113068 152.0238037   3.0778890
  67.0626068 152.5582886   4.1735849  66.9582520 150.6714630   3.0076361
  67.0682907 149.8821259   1.7785727  67.9883118 150.1437073   1.2558618
  66.1651535 150.0372314   1.1883194  67.0874863 148.3920746   2.2595026
  68.1312714 148.1163330   2.4097815  66.6776810 147.7628632   1.4694006
  66.2683563 148.4261932   3.5517931  66.4951630 147.5788116   4.1987929
  65.2106705 148.3495178   3.2997627  66.5566330 149.8031769   4.1346660
  65.6158295 150.2167969   4.4978614  67.5259628 149.8253937   5.3738351
  67.0385437 149.6478119   6.5006237  68.8317261 150.0055695   5.1994910
  69.1055756 150.1857605   4.2441707  69.7991562 150.2033997   6.2856002
  69.4859009 149.6537781   7.1732311  71.1028671 149.6490479   5.7248831
  71.4309540 150.1872711   4.8356280  71.8354568 149.8627930   6.5031662
  71.0636368 148.1618195   5.5808749  70.4744949 147.4390259   4.5491004
  70.7503357 146.1627502   4.8181419  70.5242767 145.3343506   4.1631246
  71.3235626 146.0647125   6.0076871  71.5908661 145.1582031   6.3638911
  71.5526886 147.3123322   6.4961810  72.1463699 147.4868622   7.3813252
  69.9758530 151.6027985   6.9027057  70.8413467 151.7758484   7.7693715
  69.1213913 152.5691071   6.5716195  68.4674454 152.3721313   5.8275394
  69.2498093 153.9963684   7.0037045  70.2836227 154.2119598   7.2735987
  68.9875488 154.9154663   5.8275414  68.0627518 154.5358429   5.3931050
  68.7364883 156.4101562   6.1072402  69.4826431 156.8465881   6.7712221
  68.6610947 156.9340515   5.1543794  67.7787323 156.5728912   6.6015263
  70.1162796 154.8083954   4.7841730  70.2196655 153.8462372   4.2825265
  69.8342285 155.5237122   4.0115900  71.0128937 155.1769714   5.2824893
  68.3620911 154.1968994   8.2595730  67.3862381 154.8543701   8.2017603
  68.7237167 153.5679626   9.3779802  69.4631119 152.8896332   9.2628012
  67.7272949 153.4978638  10.5121365  66.7529755 153.2771301  10.0761547
  68.1712875 152.2794342  11.3722191  69.1805420 152.4442596  11.7494879
  67.5650024 152.1432495  12.2677526  68.1154938 150.9837036  10.6435347
  67.0651703 150.7772522  10.4378786  68.7022400 151.0302124   9.7261114
  68.5916214 149.5544128  11.6465912  68.3137360 148.3397675  10.4190235
  69.0598755 148.4055634   9.6271553  68.4574738 147.3199158  10.7758627
  67.3097000 148.3974457   9.9986925  67.4871521 154.7721558  11.4023476
  66.5033569 154.7711487  12.2043161  68.2992096 155.8106995  11.3358545
  69.1251907 155.7595215  10.7568607  68.0631180 157.0506592  12.0790615
  67.8352509 156.8110504  13.1176968  69.2773361 157.9465485  12.1994257
  68.9787827 158.8349762  12.7559099  70.3796310 157.2281952  13.0520744
  70.8056412 156.3411560  12.5832796  71.2126694 157.8932037  13.2799492
  69.9189987 156.7956238  13.9402208  69.9773636 158.3239594  10.8682022
  69.3806534 158.8119507  10.0975637  70.8253174 158.9792328  11.0674486
  70.2799149 157.4031677  10.3694916  66.8929596 157.9093323  11.5182495
  66.6025772 157.8360596  10.3190594  66.2865448 158.6413727  12.3991480
  66.5577621 158.6337585  13.3720217  65.2304459 159.5061646  12.0388775
  64.6145782 159.0025482  11.2937670  64.4107819 159.8642273  13.3091726
  63.8576088 158.9920197  13.6575127  65.1176834 160.3043060  14.0125446
  63.2458649 160.8303070  12.9024010  63.5975189 161.5634766  12.1765175
  62.6312218 160.2857056  12.1856527  62.3558693 161.6980743  14.1664782
  62.5108757 160.4433136  15.5042620  63.5620270 160.3104095  15.7602158
  61.8690987 160.6673431  16.3563423  62.1193428 159.4989319  15.1262140
  65.8074493 160.8385162  11.3997669  66.6647720 161.5248108  12.0227060
  65.4038925 161.1328888  10.1660900  64.6103439 160.6348572   9.7888069
  65.7825546 162.3893280   9.5735397  66.7860031 162.6536102   9.9072304
  65.8846436 162.1497650   8.0454283  66.6729202 161.4085388   7.9138770
  64.8813095 161.8333893   7.7602410  66.1864929 163.3718414   7.2204614
  65.4496002 164.1679382   7.3268523  67.5364609 163.9216309   7.5326562
  68.3223038 163.2017670   7.3038821  67.7796173 164.7607422   6.8808365
  67.5616837 164.1822357   8.5907402  66.2367630 163.0335388   5.6983075
  65.1857758 162.8777618   5.4548755  66.6654205 163.8589325   5.1298866
  66.8483124 162.1424103   5.5569816  64.7863922 163.5036926   9.9019737
  63.5994911 163.3879089   9.5799427  65.3023987 164.5691833  10.4866142
  66.2539978 164.4606628  10.8071928  64.6892014 165.8713989  10.5922241
  63.6141663 165.7219391  10.6925640  65.1290665 166.4860535  11.9555645
  66.1407547 166.8535767  11.7837915  64.3434601 167.7778320  12.2826557
  63.2680702 167.6105194  12.2222719  64.6153793 168.2086487  13.2462769
  64.5736313 168.5038910  11.5029345  65.0184326 165.5531006  13.1585655
  65.6041336 164.6414795  13.0403185  65.3724060 166.0212860  14.0770473
  63.6390076 165.0568390  13.5487404  63.1528931 164.6009979  12.6861811
  63.7775497 164.2772217  14.2978230  63.0338020 165.8697205  13.9500284
  64.9556198 166.7781525   9.3688326  66.0866013 166.7925415   8.8474894
  63.9048424 167.4377594   8.7535505  62.5131378 167.4468994   9.0165234
  62.2727432 167.8805084   9.9872398  62.1344070 166.4301147   9.1205006
  61.8757629 168.1499634   7.8662071  60.9883842 168.6873169   8.2007532
  61.6178360 167.4163818   7.1023703  62.8777122 169.0884552   7.3478999
  62.7896309 170.0710297   7.8114743  62.7888298 169.2290649   6.2706666
  64.2433624 168.4499969   7.6741896  64.5063019 167.8642883   6.7933383
  65.3297577 169.4845428   8.0721598  65.6788864 169.7518463   9.2481985
  66.0213852 170.0240784   7.0741806  65.6358719 169.8849792   6.1510692
  67.1990585 170.9142761   7.2529984  67.4211731 171.4085693   6.3072500
  66.9295731 171.5992126   8.0569620  68.4501266 170.1816254   7.6724205
  69.5530396 170.6792297   7.4373918  68.3557434 169.0076599   8.3387337
  67.4192886 168.6403198   8.4292755  69.5248260 168.1528931   8.7926311
  70.1682816 168.7976227   9.3912983  68.9177475 167.0533295   9.7591276
  68.3463974 167.4464874  10.6000099  68.3461227 166.3542480   9.1486807
  70.0279312 166.2963104  10.4546404  70.6507034 165.7965240   9.7126961
  70.6810379 166.9551239  11.0269299  69.5316010 165.1843414  11.3895283
  68.3403244 164.9545441  11.6838894  70.4754410 164.3540344  11.9318352
  70.2181778 163.5383453  12.4690065  71.4413071 164.3918152  11.6389637
  70.2201996 167.5838928   7.5870399  69.6379623 166.7986908   6.8545895
  71.5333252 167.8857727   7.4973121  71.8777771 168.5737000   8.1517038
  72.4244919 167.2691803   6.4889736  71.9344711 167.2742157   5.5153465
  73.6909256 168.0999146   6.3195410  74.0792770 168.3664551   7.3025146
  74.8080673 167.5354156   5.4042363  74.3323059 167.4555969   4.4268022
  75.6433258 168.2199554   5.2563829  75.1788406 166.5854492   5.7891779
  73.3608093 169.3141174   5.6353974  73.7991180 169.9960938   6.1495981
  72.7229309 165.7775269   6.8776736  72.6886215 165.4834442   8.0714550
  72.9427414 164.8656769   5.8529210  72.9129410 165.2141113   4.9053950
  73.0619965 163.4409637   6.0617466  73.4160080 163.3981934   7.0917668
  71.6415024 162.8437958   5.9692154  70.9974289 163.3001709   6.7208772
  71.1446228 163.0404358   5.0191917  71.6154556 161.2963562   6.1074266
  72.1396790 160.8146820   5.2820301  72.0301895 160.8413696   7.4924831
  71.5625229 161.4987030   8.2254982  71.7040100 159.8070526   7.6016002
  73.1183243 160.8523407   7.5552034  70.1709366 160.9263916   5.9296083
  69.8639832 161.2808685   4.9456186  70.1262207 159.8388062   5.8726463
  69.4707947 161.2526550   6.6986628  74.0405884 162.9024658   4.9487147
  73.5946808 162.5860443   3.8419192  75.2128525 162.5595093   5.3232918
  75.8081894 162.7808685   6.6272206  75.3803101 162.1027222   7.3655620
  75.8444901 163.8504333   6.8341651  77.2652588 162.2767487   6.5345349
  77.3466644 161.3513184   7.1046534  77.9407578 163.0486755   6.9032278
  77.5537872 162.0092163   5.0706363  78.1772385 161.1265717   4.9279885
  77.9316406 162.9137268   4.5939894  76.1388855 161.7876129   4.5101504
  76.1229630 162.0269012   3.4468536  75.7534256 160.2963409   4.5758924
  75.2606812 159.8496704   5.5784149  76.1386185 159.4609985   3.5626030
  76.4457703 159.8636932   2.6887689  76.0034180 158.0012360   3.5888245
  75.9426270 157.5888977   4.5959907  74.6835861 157.5560760   2.9487233
  74.8596115 157.7223816   1.8859658  74.6277313 156.4678955   2.9195130
  73.3074646 157.9986877   3.5080385  73.3045425 159.0676727   3.7210352
  72.2577133 157.6597290   2.3824594  72.3927536 156.6244049   2.0694692
  71.2951584 157.7658997   2.8827686  72.2859039 158.2736511   1.4822296
  72.9780960 157.3045807   4.8704805  73.6742706 157.7424316   5.5858431
  71.9483795 157.3941345   5.2165418  73.2365036 156.2541656   4.7364812
  77.1858521 157.3380280   2.8213413  77.7317810 157.8779297   1.8527228
  77.5035400 156.0183105   3.1010933  77.0948257 155.6450195   3.9459064
  78.4260025 155.1096344   2.4163113  78.7447052 155.5531616   1.4730089
  79.7623520 154.8741913   3.1908340  80.0866928 155.8305054   3.6011930
  79.6060104 154.2530060   4.0727496  80.9207916 154.2343750   2.3954058
  80.7591248 153.1670380   2.2444792  80.8652496 154.6775055   1.4010990
  82.3776093 154.3978577   2.9007134  82.7024155 155.1800995   3.7857673
  83.3545074 153.5878601   2.5123107  84.1953964 153.6376953   3.0695498
  83.2860489 152.9228058   1.7552607  77.7642059 153.7549133   2.0719240
  77.6345367 152.9289093   2.9388278  77.3918839 153.5121307   0.8180657
  77.4999771 154.2224121   0.1081951  76.4862823 152.4077148   0.4395957
  76.1099091 151.8995209   1.3273932  75.2712402 152.9382172  -0.4071985
  75.6788635 153.3574219  -1.3270967  74.7087555 152.0575256  -0.7171664
  74.4165192 153.9502258   0.3278017  75.0681305 154.5638428   0.9498670
  73.6933060 154.8915710  -0.6262235  73.2516327 154.3829803  -1.4831680
  73.1377411 155.5693817   0.0218656  74.4260864 155.5238495  -1.1275710
  73.3746643 153.2710724   1.2514035  73.7574463 152.4687042   1.8821015
  72.9593506 154.0218048   1.9237243  72.6127014 152.7644653   0.6590529
  77.2579880 151.3463440  -0.4204501  77.5130615 151.4889221  -1.6400937
  77.6472702 150.2803345   0.3356912  77.3051071 150.2679596   1.2858882
  78.4656448 149.1655121  -0.1987220  78.8591003 149.4525299  -1.1738688
  79.5610199 149.0379791   0.8497760  80.3134232 148.3551788   0.4550959
  80.1554489 149.9471436   0.9402608  79.1675949 148.4271393   2.2520418
  78.5963593 149.2572479   3.2379572  78.3820419 150.2978973   3.0442262
  78.3218994 148.7058716   4.5306878  77.7696152 149.3356476   5.2124405
  78.5477600 147.3347168   4.7233076  78.2699051 146.8326416   5.6382508
  79.1117325 146.5343323   3.7379820  79.2526703 145.4757996   3.8992844
  79.3639145 147.0692139   2.4805408  79.6836777 146.4607239   1.6475437
  77.7413788 147.7705536  -0.5089346  78.2686462 146.9872131  -1.2929293
  76.5127563 147.4926147   0.0080982  76.1815872 148.1077881   0.7374792
  75.7038803 146.3383331  -0.4855216  76.3232574 145.4439240  -0.4183448
  74.5142212 146.1165161   0.4787045  74.0168304 147.0697327   0.6577565
  73.7388535 145.4792786   0.0534464  74.9574966 145.5042114   1.7723279
  75.2630234 144.0870819   1.9432647  75.4485855 143.9457092   3.2602558
  75.7863922 143.0666046   3.7889006  75.3441010 145.1287537   3.8759434
  75.5499954 145.2364349   4.8588524  74.9058838 146.0705566   3.0078454
  74.4767838 147.0336761   3.2417207  75.0832291 146.5817108  -1.8883113
  74.3634567 147.5548706  -2.0414319  75.1402588 145.6246338  -2.8578367
  75.6077957 144.2589264  -2.6535778  75.0044403 143.7884064  -1.8772522
  76.6769943 144.2786713  -2.4425397  75.1781540 143.4969025  -3.9229167
  74.1375580 143.2061920  -3.7788746  75.8371811 142.6419373  -4.0739622
  75.2597427 144.5832520  -5.0488544  74.5040436 144.4372864  -5.8206849
  76.2502670 144.6918640  -5.4906173  74.9496918 145.8939362  -4.3120174
  75.6258240 146.6150970  -4.7712374  73.5556946 146.3719940  -4.6073675
  73.3796310 147.1920776  -5.5567908  72.5052490 145.9498291  -3.9297726
  72.5526276 145.1580963  -3.3044441  71.1285706 146.4141541  -4.2077699
  70.9724579 146.4007568  -5.2864490  70.0809402 145.3730164  -3.5500042
  69.1579666 145.5042572  -4.1148090  70.4313507 144.4030457  -3.9027977
  69.8628998 145.4060516  -2.0585287  69.8066635 146.3990326  -1.6125053
  68.8634262 145.0205231  -1.8572211  70.7645569 144.5045013  -1.1696175
  71.8862915 144.2087097  -1.5422001  70.2729950 144.0078430  -0.0053014
  71.0021744 143.6328430   0.5844223  69.2960434 144.0267181   0.2502361
  70.9320450 147.8540344  -3.8316741  70.2527771 148.6025696  -4.5521855
  71.6543198 148.4541016  -2.8671429  72.2693100 147.8742065  -2.3143277
  71.5258560 149.8999634  -2.5121753  70.4593201 150.1102448  -2.5921314
  72.0786972 150.1557770  -1.1071863  73.1365585 149.9055023  -1.0272348
  71.9531174 151.2225494  -0.9218778  71.3216629 149.4224548  -0.0079400
  70.2597809 149.6423950  -0.1181335  71.5553284 148.3595123  -0.0682028
  71.7725983 149.8420258   1.3722010  72.9454498 149.5080414   1.7465805
  70.9518051 150.4079742   2.1325338  72.2968445 150.8735962  -3.3899860
  72.0280685 152.0300446  -3.6077325  73.3554077 150.3233795  -3.9801829
  73.6906357 149.3911285  -3.7836814  74.0590973 151.0034027  -5.0703826
  74.4782410 151.9396973  -4.7019320  75.2608566 150.1852570  -5.5586114
  74.8917084 149.2957153  -6.0690522  76.1653366 150.9341888  -6.5356236
  76.6469116 151.8262329  -6.1350689  76.9289551 150.1976929  -6.7857389
  75.5690002 151.2305908  -7.3985448  76.1688614 149.7487183  -4.3945470
  75.7559738 148.9289398  -3.8066883  77.1116486 149.3271332  -4.7431393
  76.3264923 150.5777130  -3.7046056  73.1041718 151.0896301  -6.2365322
  73.1331711 152.0876160  -6.9127736  72.2149734 150.0796051  -6.4955807
  72.3165588 149.1865997  -6.0348024  71.3762817 150.1421967  -7.6651359
  72.0401611 150.4046478  -8.4888401  70.8155670 148.6996613  -7.8787231
  71.6663895 148.0191193  -7.9111495  70.2832336 148.4051056  -6.9743099
  70.0062180 148.6272736  -9.0472755  69.7582550 147.7101135  -9.1848621
  70.2612152 151.2228851  -7.5573688  70.0574036 151.9935760  -8.4931145
  69.5744324 151.3357697  -6.4204640  69.8069763 150.7354736  -5.6422210
  68.5110016 152.3221283  -6.2019238  67.7149811 152.1928864  -6.9352360
  67.8640366 152.2497101  -4.7605052  67.7040024 151.1916656  -4.5530691
  68.5631943 152.6929321  -4.0513978  66.4443436 152.8764496  -4.4883175
  65.7523956 152.4892883  -5.2362552  66.2369843 152.5521393  -3.4685514
  66.3055267 154.6975098  -4.6203661  67.0043793 155.2572174  -3.0787833
  67.9760742 154.7790680  -2.9552352  67.2128983 156.3258667  -3.0276957
  66.2964096 154.9072113  -2.3275354  68.9663315 153.7704163  -6.3725786
  68.2590790 154.5789795  -6.9759998  70.1200714 154.1283722  -5.8302417
  70.5924530 153.4162903  -5.2918177  70.5292282 155.5279388  -5.8335261
  69.6228714 156.0996094  -5.6339984  71.6143875 155.8874054  -4.7941380
  71.8445358 156.9511414  -4.8539896  71.1711426 155.4650879  -3.3682497
  71.0931320 154.3782959  -3.3386180  71.9561768 155.8292389  -2.7055082
  70.1771240 155.8482056  -3.1375058  72.9757767 155.2875519  -5.1138401
  73.3881989 155.6244049  -6.0649180  73.6873322 155.5908356  -4.3458538
  72.9094162 154.1995850  -5.1150761  71.0082855 155.8480835  -7.2611470
  70.7167435 156.9680328  -7.7281232  71.6406479 154.8992004  -7.9886098
  71.8314133 154.0331421  -7.5052376  71.9985199 154.9136353  -9.3948898
  72.6521072 155.7585297  -9.6118526  72.7648621 153.6828156  -9.8178606
  73.5604706 153.6566315  -9.0732603  72.0994110 152.8200989  -9.7863607
  73.4165878 153.8859100 -11.1527615  72.6788559 154.1362610 -11.9151115
  74.1168213 154.7188568 -11.0897808  74.1528473 152.6107483 -11.5909948
  73.3799896 151.8425598 -11.5649300  74.5969086 152.7308350 -12.5791702
  75.2709122 152.3519287 -10.6816435  75.5891495 153.1196899 -10.1077213
  75.9673462 151.2127380 -10.5516148  75.7067642 150.1283112 -11.1933146
  74.9405136 150.2261963 -11.8439932  76.2540054 149.3037262 -10.9916286
  77.0199127 151.1620026  -9.7533789  77.2909470 152.0982819  -9.4887800
  77.6750565 150.4239044  -9.9681149  70.8235931 155.2518616 -10.2652855
  70.7851410 156.2844849 -10.9125490  69.8018341 154.3740387 -10.2275047
  69.8860397 153.5422974  -9.6607389  68.5397034 154.6028290 -10.9369097
  68.7055283 154.6125031 -12.0141783  67.6369858 153.3217621 -10.6621885
  67.4266739 153.3000641  -9.5928917  66.7021561 153.5675507 -11.1659660
  68.1764374 151.9940186 -11.2513933  69.3546600 151.8114166 -11.5427685
  67.3162766 151.0633850 -11.6203375  67.6557465 150.2222595 -12.0645914
  66.3224335 151.1843719 -11.4871464  67.7723770 155.8083801 -10.5601864
  67.1963959 156.3826752 -11.4964809  67.6932220 156.2669678  -9.2931919
  68.0659943 155.6906586  -8.5522451  67.0207977 157.5017700  -8.8475847
  66.0324097 157.5166779  -9.3069057  66.8423004 157.3112640  -7.2745762
  66.1316147 156.5328369  -6.9969220  67.8275070 157.1992645  -6.8218970
  66.2680893 158.5477905  -6.5155611  66.7746735 159.4813843  -6.7602706
  64.8129883 158.7403259  -6.8821211  64.3102951 157.7733765  -6.8623376
  64.2937622 159.3576813  -6.1490607  64.7377243 159.2630768  -7.8356271
  66.3680496 158.2457733  -5.0024819  67.3266068 157.7685547  -4.7986817
  66.4109497 159.1748047  -4.4340196  65.5875702 157.5465088  -4.7025037
  67.7257004 158.8145142  -9.2334375  67.0587234 159.8381348  -9.4160986
  69.0598679 158.8210754  -9.3987064  69.5762863 157.9572449  -9.3137407
  69.8791885 159.9824982  -9.7791939  69.6753845 160.8889618  -9.2091999
  71.4325027 159.7023163  -9.5476236  71.5937958 158.6720276  -9.2304897
  72.3817291 159.6190643 -10.8014860  72.4314270 160.6028137 -11.2682791
  73.3977051 159.3870850 -10.4819956  72.0981598 158.8769073 -11.5477390
  71.9497299 160.6951141  -8.4692173  73.0389633 160.6567535  -8.4550381
  71.7627869 161.7138214  -8.8089085  71.4677811 160.4494476  -7.0107656
  71.7285843 159.4276581  -6.7350135  72.0511246 161.0991516  -6.3583107
  70.3966446 160.6472321  -6.9703450  69.6310120 160.4248047 -11.2053642
  69.5601425 161.6341553 -11.4789772  69.4141083 159.5408936 -12.1290464
  69.6280441 158.5774994 -11.9140806  68.8941422 159.8592682 -13.4403458
  69.5460205 160.6440887 -13.8239946  69.0329971 158.6281586 -14.3407831
  68.7656860 157.7048187 -13.8268738  68.2397156 158.7018890 -15.0846653
  70.3501663 158.6168365 -15.1480446  70.2335052 157.8716278 -15.9348993
  70.4589615 159.5389404 -15.7190132  71.6592560 158.4139557 -14.3613396
  72.5081787 159.3167419 -14.3087721  71.8133698 157.2924347 -13.6947613
  72.7295990 157.0619507 -13.3376970  71.1122208 156.5658264 -13.7175970
  67.4871750 160.5225677 -13.4662161  67.1180801 160.9764099 -14.5581255
  66.7526627 160.5417480 -12.3748941  67.1411743 160.1111603 -11.5479956
  65.5197296 161.2870941 -12.1773338  65.6108017 162.0786133 -12.9211779
  64.3508453 160.3728180 -12.4977446  63.4345093 160.9271545 -12.2948923
  64.4442825 160.0696869 -13.5405684  64.3596573 159.0724945 -11.6620073
  65.2335739 158.4981079 -11.9693327  64.3724976 159.3220978 -10.6010437
  63.1161919 158.1568146 -11.9172421  63.0267105 157.3584290 -11.1805820
  62.2031822 158.7429504 -11.8124790  63.0506325 157.5369110 -13.3305216
  62.6208496 158.2199402 -14.0632296  64.0343475 157.2490082 -13.7013721
  62.1887589 156.3037567 -13.4049702  61.2703896 156.4797363 -13.0232201
  61.9727325 156.0297089 -14.3527737  62.6127701 155.5596619 -12.8695850
  65.4265289 162.1228943 -10.8966913  66.2599640 163.0187988 -10.7365713
  64.4570084 161.9130402 -10.0223179  63.7120171 161.2829742 -10.2833128
  64.1091385 162.9072418  -8.9339552  64.0098877 163.9170685  -9.3320751
  62.8093338 162.4900665  -8.2362871  62.5324669 161.5145874  -8.6361589
  63.0133667 162.1894531  -7.2086163  61.6259422 163.4790039  -8.3137550
  61.8911209 164.5688171  -8.8721447  60.4766312 163.2096558  -7.8177676
  65.1390533 163.1324310  -7.7552605  64.8798981 164.0774689  -7.0121918
  66.1613312 162.2801361  -7.6638312  66.2723160 161.6152039  -8.4159250
  67.0897675 162.2715149  -6.5385356  67.7279587 161.3880615  -6.5561805
  68.0075073 163.5056458  -6.6120038  67.3559113 164.3759460  -6.6902394
  68.5638351 163.7005615  -5.6951561  69.0328293 163.4123077  -7.7512941
  69.8319626 162.7000122  -7.5460272  68.5957108 163.2433319  -8.7354031
  69.7358627 164.7581635  -7.8237929  70.3399963 164.9823608  -6.9446726
  70.6082764 164.5742188  -8.4508076  68.8638458 165.8853912  -8.2560568
  68.5243301 165.8383484  -9.2061195  68.6662369 166.9763336  -7.5481367
  69.0510254 167.2138519  -6.3832493  69.8180771 166.6773529  -6.0038872
  68.6379089 167.9783936  -5.8685660  67.8894577 167.8850250  -8.0290461
  67.5299225 167.8364716  -8.9716368  67.7528305 168.7667236  -7.5557399
  66.5874481 162.2577057  -5.0962400  67.3713760 162.1700592  -4.1439414
  65.2414322 162.3777161  -4.8073468  64.6642227 162.5492859  -5.6182065
  64.6364441 162.1465454  -3.4891751  65.3149567 162.5402222  -2.7323754
  63.3903542 162.9697571  -3.1604443  62.9330597 162.5267181  -2.2757416
  63.6214600 164.4000092  -2.9865978  64.3696899 164.7433167  -3.7010169
  62.6975479 164.9050140  -3.2684648  63.8987541 164.3822021  -1.9326105
  62.4553604 162.9895630  -4.2506514  61.9720306 162.1696167  -4.3758121
  64.3627701 160.7208099  -3.1135378  63.6832504 159.9599915  -3.7400362
  64.9882050 160.3660889  -1.9432009  65.6688919 161.0180054  -1.5802120
  64.5747147 159.2037659  -1.1919700  63.9269753 158.6026459  -1.8300803
  65.8525238 158.2890625  -0.9777758  65.5313416 157.3179626  -0.6010662
  66.2130127 158.0401154  -1.9758604  66.9791565 158.7271118  -0.0719313
  68.0491791 159.4898834  -0.5114039  68.0794144 159.8733368  -1.5205903
  69.0681686 159.8276825   0.3592975  69.9064865 160.4226074   0.0281033
  69.0561676 159.4871368   1.7044508  69.8225021 159.8754883   2.3589046
  67.9567947 158.7965851   2.1885948  67.8701782 158.4665222   3.2132654
  66.8883591 158.4458466   1.3273269  66.0311050 157.8920898   1.6807089
  63.9097824 159.5575256   0.1023347  63.7879791 160.7360229   0.4584637
  63.2815018 158.5623779   0.7235325  63.4657631 157.6372986   0.3624426
  62.5527763 158.8396149   1.9867814  62.4676247 159.8856964   2.2810030
  61.1228867 158.1904602   1.8868959  61.3034515 157.1171722   1.8272471
  60.5096779 158.3879700   2.7661357  60.5581436 158.6126709   1.0556893
  63.3110580 158.2577057   3.1750686  63.8070869 157.1182404   3.0369275
  63.2971382 158.8908234   4.3312712  62.9610252 159.8377533   4.4335966
  63.7295303 158.2768402   5.6143270  64.0244675 157.2403107   5.4508705
  65.0203400 159.0178375   6.0408645  64.7409134 160.0665741   6.1417799
  65.5819702 158.5108490   7.3341651  65.6822510 157.4288940   7.2479224
  66.5720749 158.9527435   7.4460497  64.9281082 158.6774445   8.1902122
  66.1009445 159.0469055   4.9669313  65.7898712 159.7095184   4.1592937
  66.9639816 159.6272125   5.2932901  66.4311600 158.0290222   4.7596412
  62.5784531 158.2911835   6.6488819  61.7972145 159.2404633   6.7603798
  62.2957382 157.1080780   7.1592031  62.9608231 156.3618164   7.0148268
  61.1866074 156.8437500   8.0643959  60.3374176 157.4500122   7.7490520
  60.7933159 155.4279785   7.8274193  61.7098503 154.8462830   7.9258146
  60.0680542 155.1441650   8.5900192  60.2356529 155.1004333   6.4904466
  60.9498024 155.3778839   5.7151313  59.9277840 153.5911407   6.4668136
  59.1747017 153.2450714   7.1747622  59.5747528 153.2393646   5.4974194
  60.8475151 153.0485687   6.6854496  58.9478455 155.8473206   6.0743227
  59.2596588 156.8320465   5.7262015  58.4479446 155.2925110   5.2803574
  58.2770920 155.8846741   6.9326901  61.4521179 157.1653748   9.5734901
  62.5602798 156.7885742  10.0596571  60.5180473 157.7732239  10.2605906
  59.6207886 158.0376282   9.8796597  60.5913696 157.7503052  11.6706600
  61.6425514 157.9184570  11.9048500  59.8833427 159.0039825  12.2568941
  58.8067856 159.0025024  12.0862226  60.0324821 158.9782104  13.3363361
  60.2816353 159.9253540  11.8319960  60.1865730 156.3649139  12.2332125
  59.0486603 156.1282196  12.5483456  61.2117729 155.4828949  12.3875790
  62.1830711 155.6974640  12.2125435  60.8654022 154.1557312  12.9767656
  59.9591599 153.8230743  12.4706440  62.0081940 153.1852264  12.7067709
  62.9837646 153.5387268  13.0405207  61.7516594 152.2805634  13.2580061
  62.2085075 152.8029938  11.2096558  61.1422348 152.1608734  10.4432116
  60.2842789 151.8184052  11.0027065  61.3689537 151.7496643   9.1303749
  60.6412392 151.1281586   8.6297989  62.5880661 152.0018921   8.5279512
  62.7222786 151.5315704   7.2335863  62.1876183 150.7522888   7.0648775
  63.5753555 152.7156067   9.2404203  64.4734421 152.9872894   8.7056074
  63.3900070 153.1487274  10.5745754  64.1297836 153.7618561  11.0677309
  60.4857864 154.3097229  14.5011263  61.3978615 154.2659760  15.3760386
  59.1956673 154.2561035  14.8198109  58.6205978 154.0295715  14.0210142
  58.5322571 154.0469208  16.1085968  58.8285065 154.7851868  16.8537788
  57.0509796 154.3728485  15.9237309  56.4908791 154.4038544  16.8583050
  56.8412819 155.2928772  15.3781433  56.3930931 153.3287201  15.1249113
  56.2940331 152.5280914  15.6452761  58.7837181 152.6483154  16.6978130
  59.0343666 152.5704346  17.9317913  58.8940582 151.5768585  15.9136801
  58.8912201 151.7456818  14.9178934  59.5402222 150.3085327  16.3032780
  60.0912018 150.4339905  17.2353687  58.5083008 149.2435913  16.5164986
  57.7881737 149.5718231  17.2660198  58.0216293 149.0099640  15.5695734
  59.1349602 148.0339050  17.1313248  60.1535034 147.5027008  16.7210751
  58.5313301 147.5659943  18.1708813  58.9347191 146.7124634  18.5298290
  57.6852341 148.0437012  18.4465981  60.5371513 149.9304047  15.2547731
  60.1648674 149.6085052  14.1448402  61.8024902 149.9784546  15.6173887
  62.0537567 150.2583923  16.5547276  62.9015770 149.6995544  14.6624565
  62.6204300 150.0807953  13.6807661  64.0777817 150.5622101  14.9843931
  63.6360321 151.5508270  15.1092310  64.7538300 150.1686554  16.3259048
  65.0885925 149.1321411  16.3665810  65.5067444 150.9134979  16.5836620
  64.0661163 150.2917786  17.1625557  65.1611786 150.5223846  13.9432135
  64.7252502 150.7669983  12.9745836  65.8253937 151.3666534  14.1279249
  65.7171707 149.5892944  13.8519020  63.1290855 148.2088928  14.4524775
  63.6544914 147.8572083  13.3908176  62.8291779 147.3526154  15.4697542
  62.3648453 147.7761230  16.2604065  62.9364586 145.8934174  15.4851112
  63.8998260 145.5296478  15.1277685  62.8654137 145.3305359  16.8688698
  63.6737099 145.7573547  17.4626484  61.9050446 145.6316071  17.2873783
  63.1084862 143.8494263  17.1362324  62.5403290 143.3314056  16.3636017
  64.1612396 143.6205444  16.9706573  62.6157837 143.4707184  18.5504417
  63.1168518 144.0475311  19.3278351  61.5345879 143.5954285  18.6101208
  63.0648079 142.0176849  18.7479382  63.9594650 141.8394318  19.1814327
  62.5008507 140.9092102  18.2741375  61.4377441 140.8641815  17.5584011
  61.0360489 141.7274933  17.2215881  61.0068855 139.9854126  17.3089390
  62.9116096 139.7810364  18.7889671  63.6455574 139.8069000  19.4823284
  62.5378227 138.9126892  18.4335041  61.8733711 145.2066956  14.5834751
  62.2044678 144.3538513  13.7610464  60.5961151 145.6315460  14.7130852
  60.3425560 146.1792755  15.5228977  59.5070724 145.2181396  13.9123497
  59.5904465 144.1687012  13.6298409  58.2051468 145.2616119  14.7946825
  58.0978127 146.2819366  15.1628065  57.3357086 145.0147552  14.1853924
  58.2074242 144.3360748  16.0515213  59.0652542 144.6017151  16.6693172
  57.3360291 144.6053162  16.6484165  58.2082405 142.8274994  15.7325583
  57.1481743 142.1777496  15.4333191  59.3288879 142.2177124  15.7135830
  59.3346176 146.0456543  12.6736898  58.6834335 145.5523071  11.7400103
  59.9520988 147.2338257  12.5664167  60.5147171 147.4855499  13.3665342
  60.0217628 148.1134644  11.4229174  60.7069588 148.8948364  11.7516594
  60.5949936 147.5047455  10.1568727  59.8033676 146.9540863   9.6487284
  60.9184456 148.2498474   9.4300308  61.6883926 146.4582977  10.3140774
  62.2753830 146.6019135  11.2212248  61.2526665 145.4616547  10.3845158
  62.7652512 146.5307159   9.2027702  63.5233765 145.7486267   9.2438297
  62.1933174 146.5262299   8.2748861  63.6156197 147.7757874   9.4032011
  63.3359909 148.2820282  10.2312241  64.5760117 148.1251373   8.6208839
  65.2560349 147.3341064   7.8151803  65.0300598 146.3511047   7.7626510
  65.7915192 147.7562866   7.0701103  64.9685669 149.3201141   8.6409550
  64.5731964 149.9734802   9.3019228  65.7616653 149.6192474   8.0917683
  58.7281837 148.9217987  11.1722326  58.2426529 149.0454407  10.0625372
  58.0007019 149.3723450  12.2177191  58.4610825 149.4161072  13.1156235
  56.7680779 150.1992950  12.1299887  56.1460152 149.9466705  11.2713137
  55.9060402 149.9423370  13.3827715  56.4655190 150.1780701  14.2880440
  55.0759354 150.6480713  13.3516607  55.4490128 148.4573975  13.4368286
  54.9577217 148.2344513  12.4897099  56.3049049 147.8029022  13.6017218
  54.6166000 148.1478577  14.7068214  54.7051353 148.9443359  15.6888075
  53.9581680 147.1070251  14.7067041  57.0889931 151.7159882  12.0559387
  57.9768677 152.2032928  12.7837429  56.4074211 152.5557556  11.1663322
  55.5841522 152.1470490  10.7476683  56.6074715 154.0382385  11.0182543
  56.7706947 154.4940796  11.9948177  57.9191475 154.3063354  10.1870403
  57.8049126 153.7533722   9.2546911  57.9967117 155.3795166  10.0128069
  58.7491531 153.9862823  10.8169279  55.4471474 154.7888184  10.3480463
  55.1840363 154.5353241   9.1760464  54.8270874 155.6635590  11.1439323
  55.1102142 155.7976990  12.1041136  53.6240768 156.3095551  10.6549969
  53.1154556 155.6408844   9.9605350  52.6749306 156.6245575  11.8128176
  53.1964798 157.3403015  12.4482698  51.6561050 156.9180756  11.5599585
  52.3839874 155.3852692  12.6351585  51.5182152 154.3684082  12.3514967
  51.4752617 153.5793152  13.4167604  50.8842888 152.6756439  13.4396467
  52.1908875 154.1076355  14.3948021  52.2835007 153.6392212  15.2848120
  52.7235947 155.2717285  13.9424019  53.3645020 155.9790039  14.4477701
  53.9209976 157.5414429   9.7516651  53.0043221 158.1022186   9.1225767
  55.1636658 158.1463776   9.8389015  55.8876114 157.6540070  10.3424654
  55.5936813 159.4858093   9.2771311  54.8867683 159.8080444   8.5125780
  55.5897636 160.5092316  10.4251432  56.1361504 160.1072235  11.2783413
  56.0199509 161.4394531  10.0540333  54.2317429 160.9285583  10.8864489
  53.6308556 162.0937958  10.3856344  54.1409454 162.6944885   9.6471424
  52.5025406 162.6140289  10.9829826  52.2233276 163.5983734  10.6372890
  51.8390579 161.9734039  12.0329161  50.9662857 162.4281616  12.4777336
  52.3094978 160.7436981  12.4095078  51.8537521 160.1909485  13.2176924
  53.5047188 160.2587433  11.8592052  53.9714127 159.4114990  12.3395710
  57.0374107 159.4484711   8.7088690  57.6892853 158.3807068   8.7776823
  57.6442871 160.5227814   8.2296066  57.1201363 161.3754272   8.0941124
  59.0936699 160.6065674   7.9560299  59.5818825 160.5050049   8.9252739
  59.4282570 159.7411346   7.3840346  59.5105820 161.9075623   7.2047386
  58.7463570 162.8577576   7.2231073  60.6701393 161.9212799   6.5567570
  61.1927528 161.0656128   6.6783786  61.2646370 163.1491852   5.9068933
  60.4514198 163.8556519   5.7404952  62.2531700 163.8207855   6.8545947
  62.9927292 163.1275482   7.2553105  62.8985710 165.0194855   6.1835661
  62.1457062 165.7510681   5.8901358  63.5732307 165.4600067   6.9176474
  63.4084549 164.5868073   5.3228092  61.5541496 164.3357086   7.9693494
  61.9121628 163.9542542   8.7742805  61.9008827 162.8012238   4.5730681
  62.5643272 161.7779999   4.3987861  61.6792984 163.5056763   3.4644539
  60.9437103 164.1974640   3.4434400  62.3559799 163.3152924   2.1638536
  62.3456993 162.2465363   1.9499484  61.5632019 163.8758240   0.9848228
  62.1425285 163.7426758   0.0711710  60.1311226 163.3886261   0.8185650
  59.5508575 163.7561646   1.6649135  59.7482262 163.6313019  -0.1726955
  60.0738602 162.3011017   0.8647235  61.3420715 165.2928162   1.1896155
  62.1736984 165.6969604   0.9314334  63.7776413 163.8765717   2.1526377
  63.9342690 165.1021729   2.0451341  64.7613220 162.9634399   2.1484363
  64.5094376 161.9855194   2.1661704  66.0987701 163.2553406   1.7424771
  66.4115372 164.1429443   2.2924199  66.9466858 162.0408936   2.2541099
  66.5255432 161.1781006   1.7380477  67.9812775 162.1716614   1.9368910
  66.9487534 161.9177551   3.3371344  66.2270813 163.4454498   0.2469733
  66.0656433 162.4679413  -0.5066657  66.6056976 164.6767883  -0.1892598
  66.7023315 165.4059906   0.5028636  67.1147079 164.9369812  -1.5996197
  66.7003555 164.1545715  -2.2354214  66.6886902 166.3558960  -2.0705698
  65.6116638 166.4388580  -1.9248604  67.0348969 167.1235199  -1.3784794
  67.1411896 166.7236786  -3.4966593  68.2094727 166.5674896  -3.6466095
  66.5676117 166.1562195  -4.2295227  66.9877319 168.2368774  -3.8309844
  65.9788208 168.8399658  -3.4264665  67.8978806 168.7208252  -4.4633288
  68.6631470 164.8561707  -1.5852213  69.3697205 165.4009399  -0.7319345
  69.2910080 164.0530548  -2.4360702  68.7044678 163.5130157  -3.0560956
  70.7354736 163.9677734  -2.5646083  71.2546082 163.9441681  -1.6064600
  71.0932693 162.6081238  -3.2589586  70.5212708 162.4468536  -4.1726980
  72.5906754 162.6284485  -3.7325492  73.2162781 163.0111847  -2.9261711
  72.9491577 161.6515961  -4.0571003  72.7125778 163.3919983  -4.5008168
  70.7097778 161.3708344  -2.3453159  71.4562912 161.4002533  -1.5516173
  69.6892471 161.5629120  -2.0140805  70.8160248 160.0505371  -3.1597943
  71.8791580 160.0493927  -3.4002950  70.5460587 159.1917877  -2.5451596
  70.1404266 160.0815735  -4.0146093  71.3142700 165.1049957  -3.3159025
  71.0107803 165.2894897  -4.4759774  72.2072296 165.9151001  -2.6694615
  72.2958679 165.7128296  -1.6839032  72.8127518 167.1018829  -3.2994690
  72.2292099 167.2570801  -4.2069378  72.7052536 168.3590088  -2.4252183
  72.8319016 169.2718048  -3.0073428  71.6972275 168.3528900  -2.0105596
  73.6597214 168.3285065  -1.2081712  74.9493332 168.8842926  -1.3407148
  75.2439346 169.2899475  -2.2972944  75.8039703 169.0850067  -0.2125386
  76.7433853 169.6126099  -0.2868457  75.2880020 168.6347961   1.0445938
  75.9844513 168.7002106   2.2377307  76.6853104 169.3555145   2.2066293
  74.0368881 168.0177155   1.1834130  73.6903000 167.6440735   2.1356018
  73.1816025 167.8883514   0.0620679  72.2402573 167.3878174   0.2345338
  74.2633972 166.8803101  -3.7885959  74.6496658 167.6045380  -4.7292643
  75.0195694 165.8547516  -3.2625866  74.6285248 165.3159332  -2.5030663
  76.3079071 165.4096527  -3.7297883  76.3746490 165.8888855  -4.7065067
  77.4918137 166.1837158  -3.0010247  77.6805496 165.8707581  -1.9741157
  78.4113464 166.1539001  -3.5855601  77.2294235 167.2341461  -2.8752301
  76.4883881 163.9479370  -3.7736275  75.9604950 163.1752014  -2.9842823
  77.2367935 163.5284119  -4.8624210  77.6488190 164.2483826  -5.4386005
  77.1569748 162.1776886  -5.3011069  76.9772034 161.4716339  -4.4903860
  75.9602814 162.0417480  -6.2724361  75.0634613 162.2125549  -5.6769180
  75.9671936 162.8632812  -6.9887624  75.8220367 160.7758789  -7.0733871
  75.0563126 159.7330170  -6.5295529  74.6244965 159.8566437  -5.5473843
  75.0225983 158.4877777  -7.2010870  74.3862305 157.6934052  -6.8399935
  75.5729294 158.3471069  -8.4862509  75.3194351 157.3764801  -9.4330826
  75.1077118 156.5051117  -9.0903158  76.3566513 159.4096832  -8.9930153
  76.8536835 159.2756195  -9.9424324  76.5017853 160.6414185  -8.2934065
  77.0698547 161.5083923  -8.5968084  78.4835281 161.6600800  -5.9501829
  79.0863113 162.4140930  -6.7149224  78.9359283 160.4003296  -5.7482719
  78.4174423 159.8944092  -5.0444875  80.2492828 159.8684845  -6.1512041
  80.3919525 160.2734680  -7.1530747  81.3459473 160.3812256  -5.2796106
  81.1228409 161.3923492  -4.9391155  81.4453888 159.7120819  -4.4249372
  82.7284851 160.4694519  -5.9461322  82.9011230 159.4638214  -6.3295450
  82.6529541 161.2358398  -6.7175183  83.9158325 160.8045959  -5.0029268
  83.7337494 161.6251984  -4.3089643  84.0535583 159.9520874  -4.3378377
  85.1174316 161.1562805  -5.7821126  85.0439301 162.0163269  -6.3065381
  86.2067184 160.5337372  -6.0305905  86.6424408 159.4724121  -5.3988247
  85.9808121 159.0463104  -4.7657471  87.4683762 158.9835205  -5.7133336
  87.1722336 161.1427612  -6.7472191  86.9858551 161.9807434  -7.2793293
  88.0565872 160.6553650  -6.7685266  80.4147949 158.2724609  -6.2642760
  80.1968002 157.5706177  -5.2743273  80.6880722 157.6494293  -7.4383774
  81.0820007 158.2102051  -8.1803007  80.8039703 156.1682739  -7.5573206
  80.3233795 155.6745911  -6.7126865  80.0642471 155.7337799  -8.7997999
  80.1759338 156.4831696  -9.5833960  80.4377747 154.7597046  -9.1156769
  78.5094986 155.6222229  -8.4750242  78.2852020 155.4163818  -7.4284015
  78.0585861 156.5975342  -8.6581888  77.8347931 154.5098572  -9.2998028
  76.9169846 153.9160309  -8.7996655  78.2010727 154.1160431 -10.4777126
  82.2889557 155.7279663  -7.3656025  83.1726685 156.3603516  -7.9488459
  82.4637299 154.6717529  -6.6728559  81.6703644 154.0985565  -6.4236460
  83.7651367 154.0697937  -6.4587369  84.4984055 154.3764496  -7.2046418
  84.4273224 154.5017242  -5.1795506  83.6850433 154.5119019  -4.3814168
  85.1530533 153.7748108  -4.8148489  85.1191559 155.9042206  -5.3100724
  86.0887604 155.7183075  -5.7720246  84.5101547 156.6075287  -5.8780527
  85.3827896 156.5031738  -3.8958733  85.8916168 155.7378845  -3.0768111
  85.4294281 157.7553253  -3.6669552  83.7861176 152.5058289  -6.7052794
  82.8073349 151.7964172  -6.4497628  84.9306564 151.8911438  -7.0645490
  85.7991257 152.3842621  -7.2152157  85.0337143 150.4385223  -7.2948670
  84.3399658 149.8304596  -6.7142839  84.7865372 150.1442413  -8.8055687
  83.7531815 150.4312897  -9.0002041  85.3837280 150.8499908  -9.3829641
  85.1022339 148.6937256  -9.1514282  86.1907196 148.6535645  -9.1103077
  84.7093201 148.0310364  -8.3803387  84.5539780 148.2055359 -10.5132656
  84.2782669 146.9752045 -10.7604437  84.2220612 149.0495758 -11.4259539
  83.5776520 148.7750549 -12.1536055  84.3245163 150.0324097 -11.2170553
  86.3741913 149.9575958  -6.7467852  87.4788895 150.3580627  -7.2393107
  86.3791046 149.1282196  -5.7163248  85.5165253 148.6784363  -5.4447379
  87.5733643 148.5789032  -5.0274730  88.3174973 148.4009705  -5.8038116
  88.2717590 149.4533539  -3.9831786  87.5593948 149.5730591  -3.1669025
  89.1547318 148.9477539  -3.5922360  88.7941818 150.8680878  -4.5210438
  89.3234329 150.6748657  -5.4541330  87.9205933 151.4761353  -4.7560349
  89.6688309 151.6456146  -3.5353084  89.1191177 152.3357391  -2.6492898
  90.8889313 151.4107056  -3.6266434  87.2868805 147.1785889  -4.3986521
  86.1213226 146.8332672  -4.3117971  88.2782593 146.3253479  -4.0291443
  89.1819839 146.7713013  -3.9620061  88.0503082 144.9173431  -3.5704839
  88.9679718 144.3654327  -3.7739260  87.7822723 144.9097290  -2.0645692
  86.7269974 145.1605682  -1.9569656  87.9307785 143.9072571  -1.6631886
  88.5324631 145.8524475  -1.1661495  89.7368622 145.4307251  -0.5787200
  90.1322861 144.4424286  -0.7612132  90.4388428 146.2613068   0.3161691
  91.3585358 145.9391937   0.7818011  89.9482803 147.5788879   0.5800395
  90.6344910 148.4228821   1.3848841  91.5259705 148.1647339   1.6302679
  88.7424316 147.9897461   0.0370326  88.3448181 148.9226074   0.4085922
  88.0248032 147.1117401  -0.8021191  87.0746918 147.4629059  -1.1767955
  87.0484085 144.0533447  -4.3319898  86.3281937 143.2837524  -3.6850615
  86.8855591 144.1946411  -5.6707134  87.4589233 144.8528137  -6.1788015
  85.9752808 143.3191681  -6.4020581  86.2730179 143.4000854  -7.4474797
  86.0511169 142.2708282  -6.1133699  84.5079575 143.6750336  -6.2476568
  83.7124863 142.8166656  -6.6529179  84.1550751 144.8188019  -5.6030560
  84.9249878 145.3645782  -5.2432418  82.8105927 145.2168732  -5.2350268
  82.2466278 144.3251343  -5.5086055  82.5484924 145.3224182  -3.6730087
  81.4681015 145.3417053  -3.5298929  83.0559616 144.0901489  -2.9664378
  84.1115417 143.8970032  -3.1576047  82.8938599 144.0988922  -1.8885942
  82.5612946 143.2100067  -3.3772414  83.2708740 146.5207367  -2.9950802
  84.2797089 146.1919861  -2.7455337  83.3683319 147.3092957  -3.7412481
  82.6429291 147.0370483  -1.6825293  82.8388214 146.2643280  -0.9391264
  83.1658401 147.8884583  -1.2469096  81.5710449 147.2026367  -1.7909036
  82.4329376 146.4579620  -6.0459061  83.3109360 147.2018585  -6.4688964
  81.1206512 146.6841736  -6.2196031  80.4317017 146.0217896  -5.8929729
  80.5912399 147.9985809  -6.5769744  81.3308258 148.5074463  -7.1951771
  79.3307266 147.9129791  -7.4915619  78.5707626 147.3013458  -7.0053048
  78.9879074 148.9285736  -7.6894789  79.7139511 147.2100525  -8.7937183
  80.7001953 147.5921021  -9.0572882  79.9439011 146.1499176  -8.6872797
  78.7088547 147.4647369  -9.9513807  77.9318619 148.4652252  -9.9811678
  78.8498917 146.7593994 -10.9450102  80.1959000 148.8120575  -5.2979336
  79.8119583 148.1746826  -4.2980146  80.2817001 150.1141510  -5.3428059
  80.7237244 150.5793304  -6.1227531  79.9894104 151.0256805  -4.2047305
  79.0844345 150.6144409  -3.7575099  81.0671082 150.8763885  -3.1224911
  81.2784042 149.8288116  -2.9079189  82.5123062 151.3940277  -3.5338669
  82.5761108 152.3531952  -4.0476823  83.2265778 151.4038849  -2.7105715
  82.9182663 150.6490021  -4.2181430  80.6468201 151.6694031  -1.9687072
  81.2834930 151.4468689  -1.2855326  79.7304001 152.4934387  -4.5244269
  80.0617218 152.9937134  -5.6261683  79.0491638 153.2470856  -3.6195624
  78.8677444 152.8864899  -2.6937346  78.6791534 154.6740112  -3.8286450
  79.4022980 155.0775452  -4.5373950  77.3353119 154.6819153  -4.6651435
  77.5991211 154.2512817  -5.6310949  76.1953049 153.9160461  -4.0372782
  75.9621658 154.4486389  -3.1152730  75.3159866 153.9134827  -4.6814032
  76.4050446 152.8820801  -3.7633946  76.8580933 156.0557556  -5.0321274
  77.6744232 156.6450653  -5.4497690  76.1471176 155.9282227  -5.8484306
  76.3366241 156.4762573  -4.1722760  78.5701675 155.5096893  -2.5808377
  78.0603104 155.0985565  -1.5581191  79.0409698 156.7962952  -2.6662753
  79.3401642 157.1591797  -3.5600879  79.1087875 157.7769318  -1.5515634
  78.7786179 157.3128967  -0.6221786  80.5470657 158.2493896  -1.6428713
  80.6910782 158.6412201  -2.6497669  80.6783752 159.1338043  -1.0194216
  81.6306458 157.1857605  -1.2580428  81.4076385 156.7760315  -0.2729078
  81.6172104 156.2994232  -1.8923469  83.0063629 157.8572235  -1.1804875
  83.3186188 158.1569061  -2.1808777  82.8444901 158.8594513  -0.7837111
  84.1790009 157.2433167  -0.4037314  83.9621429 157.1690979   0.6618958
  84.3264389 156.2289124  -0.7743330  85.4824600 157.9629059  -0.5706552
  85.4207458 158.8922577  -0.1800348  86.2091064 157.4465790  -0.0957806
  85.7403107 158.1294861  -1.5328707  78.1578445 158.9437866  -1.8703861
  78.1603088 159.4732819  -2.9945879  77.4063187 159.3728485  -0.8535879
  77.4788742 158.9329681   0.0526869  76.3947296 160.4377747  -1.0412936
  76.7544250 161.0346985  -1.8793843  75.0301895 159.9347382  -1.5143242
  74.4792633 160.8307190  -1.8002791  74.9566727 158.9227295  -2.6367891
  75.3589630 157.9694519  -2.2939892  73.9023438 158.8051453  -2.8871448
  75.3785934 159.3293762  -3.5558715  74.0931320 159.2902679  -0.4758174
  74.1964798 159.7611389   0.5017822  73.0689774 159.4860535  -0.7934116
  74.2738876 158.2156067  -0.4525960  76.2298050 161.3350830   0.0813240
  76.3147430 160.9609070   1.2085378  76.0145645 162.6314850  -0.1722432
  75.8734360 162.9196320  -1.1299244  75.6539154 163.6802826   0.8249717
  75.5323105 163.1710205   1.7809892  76.7517395 164.7796783   0.9439980
  77.0502853 164.9817047  -0.0846690  76.2729034 165.6501160   1.3925170
  77.8867188 164.3484344   1.8391993  77.6229401 164.3567200   2.8967705
  78.0866928 163.2968292   1.6336889  79.2072372 165.0866699   1.5720767
  79.9478836 164.8274689   2.3286195  79.6072159 164.7140198   0.6290795
  79.0347137 166.5999908   1.4986988  78.2346420 166.8569641   0.8044713
  78.7290573 166.8605804   2.5119944  80.3465424 167.2239227   1.0714746
  80.5780792 166.8936615   0.1455023  80.2492828 168.2280884   1.0235847
  81.0725708 167.0127258   1.7410846  74.2355652 164.2421417   0.4621103
  73.9546738 164.5724335  -0.7053529  73.3245010 164.3532715   1.4103717
  73.6456528 164.1448212   2.3449862  71.9039764 164.5419312   1.2930096
  71.6769867 165.0826569   0.3742052  71.2281570 163.1362915   1.3396599
  71.5249176 162.6034393   2.2430444  70.1548233 163.3210602   1.2958591
  71.5135880 162.5462799   0.4687262  71.3202057 165.4606018   2.4045143
  71.9983444 165.6831970   3.3840995  70.0912552 165.9926300   2.2590013
  69.6048737 165.9571381   1.3745420  69.4906006 166.8862000   3.1888585
  69.8305740 166.7075806   4.2089629  70.0360184 168.2873077   2.7955582
  71.1094360 168.1211090   2.7047014  69.5125732 168.8584442   1.4939295
  68.4250259 168.9229889   1.5283239  69.9898911 169.8253784   1.3348117
  69.7169647 168.1981659   0.6511070  69.7979355 169.3858185   3.8634157
  68.7840652 169.7446747   3.6862545  69.8819809 168.9097443   4.8403487
  70.7534714 170.5727844   3.8934844  70.6212540 171.2306824   3.0345335
  70.4897156 171.1054077   4.8071833  71.7924957 170.2471161   3.8437626
  67.9686127 166.7685089   3.1530674  67.3345337 166.4874268   2.1363440
  67.3721085 166.8869324   4.3257174  67.9291458 167.1174774   5.1360617
  65.9043732 166.6835785   4.4092822  65.5897751 165.7859802   3.8769028
  65.6761093 166.5368347   5.4649649  65.0018539 167.8131409   3.8737144
  64.9459991 168.9019470   4.5206161  64.3639603 167.7211456   2.7342215
  64.4789047 166.8789215   2.1887288  63.4660606 168.7935944   2.1456323
  63.9604340 169.7318726   2.3972743  63.3843651 168.6701508   0.6522521
  63.1808281 167.6093292   0.5062156  62.5918427 169.3618011   0.3665323
  64.6068497 168.9287567  -0.2400696  65.4996796 168.5970154   0.2899294
  64.4306183 168.3968658  -1.1750311  64.7587280 170.4109039  -0.6229509
  65.3952866 170.4470673  -1.5070280  63.8089066 170.8511505  -0.9264629
  65.3200760 171.1870117   0.5652738  64.5963364 171.5796204   1.1502267
  66.5976944 171.4595032   0.7883765  67.5614700 170.8716888   0.0835690
  67.3057404 170.1813202  -0.6078763  68.4965057 171.2479401   0.1487375
  66.8850403 172.4551544   1.5511345  66.1608124 173.0027161   1.9936042
  67.7952652 172.8927765   1.5607425  62.0720558 168.9942474   2.7906518
  61.7484283 170.0940704   3.2342870  61.3113518 167.8797455   2.9472249
  61.6951561 166.9502258   2.8534596  59.8196678 167.9402771   3.3845699
  59.6055069 168.8899384   3.8748350  58.9196815 167.7923431   2.1607051
  58.9417152 166.7230835   1.9502553  57.9363708 168.1523590   2.4633534
  59.3784142 168.6159210   0.8948551  58.9175720 169.6036072   0.9093103
  60.4601402 168.7496643   0.9040023  58.9920654 167.9821777  -0.3690530
  58.3194504 168.5753174  -1.1840322  59.3586960 166.7255402  -0.5608959
  58.9307404 166.2447205  -1.3392059  59.9991531 166.2853699   0.0842162
  59.5390854 166.8434143   4.3679957  60.0845795 165.7592773   4.2894626
  58.6523933 167.0763550   5.3939333  58.1523323 167.9537964   5.3819404
  57.9857140 165.9555054   6.1566877  58.8313942 165.3208771   6.4215689
  57.4205551 166.5714264   7.4467397  56.7183380 167.3681030   7.2011771
  56.8387909 165.9156342   8.0944996  58.4805222 167.3105316   8.2843857
  59.2343826 166.5514374   8.4930744  58.8840370 168.1739197   7.7553744
  57.8909760 167.7068634   9.6406746  57.3838539 166.9471893  10.2355194
  58.6872749 168.0771790  10.2863245  57.0359344 168.9226685   9.5270462
  57.5190964 169.7490540   9.2049627  55.7720222 169.0871124   9.8175669
  54.9570160 168.1282043  10.2312632  55.3147850 167.3507690  10.7676430
  54.0072899 168.4164734  10.4184217  55.2359886 170.3150177   9.6604633
  55.8488045 171.1001129   9.4925671  54.2396507 170.4686127   9.5986767
  56.8624229 165.1903076   5.3883810  56.3152084 165.8040161   4.4750319
  56.4964828 164.0077057   5.7771392  57.1277084 163.4769592   6.3602161
  55.2840309 163.3133087   5.4239540  54.6051254 164.0497894   4.9940743
  55.5925179 162.4294281   4.1569800  54.6415596 161.9200897   4.0009651
  55.8152771 163.1488800   3.3690250  56.7309761 161.4642181   4.3313622
  56.6282349 160.2855072   5.1091933  55.7050133 159.9674835   5.5706239
  57.7712440 159.4410095   5.2167459  57.5732422 158.5306396   5.7630119
  58.9187927 159.7357025   4.5112786  59.7911530 159.1089172   4.6232243
  59.0026474 160.8336639   3.6580396  59.9076424 160.9955750   3.0913231
  57.9115219 161.7254181   3.6260691  57.9508171 162.5752258   2.9607320
  54.5623283 162.4247589   6.4955716  55.1399651 161.9512329   7.4825377
  53.2411880 162.1103516   6.2031555  52.7978516 162.7199554   5.5308962
  52.4456673 160.9819946   6.7367520  52.9178009 160.7126770   7.6815596
  50.9838371 161.4113159   7.0488324  51.0487862 162.4233704   7.4483523
  50.3685570 161.4964600   6.1531291  50.3069725 160.4463654   8.0184956
  50.3974304 159.4449615   7.5976558  50.7508965 160.5935669   9.0030584
  48.7731514 160.6640015   8.1723375  48.3244171 160.7114258   7.1801229
  48.3522835 159.8064575   8.6973009  48.3293991 161.8600616   9.0278988
  48.9093094 161.9207764   9.9488325  48.5247993 162.7989807   8.5098667
  46.8384743 161.9507599   9.2419748  46.4161835 161.2359772   9.8171940
  46.6160278 162.8783569   9.5739031  46.3929443 161.9275055   8.3358488
  52.5250511 159.7559509   5.8375087  52.4348106 159.9072571   4.6205525
  52.6588783 158.5166626   6.3617005  52.7257996 158.4582367   7.3677859
  52.7627678 157.2494354   5.6472163  53.1151772 157.4336700   4.6323452
  53.7887611 156.2630463   6.3096080  53.5096474 156.1297913   7.3548050
  53.7914009 154.8005524   5.7611828  53.8540611 154.8241577   4.6732411
  54.6458168 154.2842712   6.1988149  52.8692398 154.2844543   6.0283146
  55.1973648 156.8754425   6.2032924  55.2223892 157.8423157   6.7059026
  55.9570160 156.3554688   6.7869534  55.4855881 157.0659027   5.1694865
  51.3555832 156.6070709   5.4781780  50.5547485 156.4592285   6.4281025
  51.0890427 156.1264954   4.2694869  51.7316818 156.1491394   3.4906390
  49.8680725 155.4050903   3.9657722  49.0973320 155.6595001   4.6933279
  49.2950134 155.9986267   2.6135414  49.9169197 155.7384796   1.7570038
  48.3526726 155.4710999   2.4658468  48.8849564 157.5029755   2.5917554
  49.7401237 158.1214142   2.8643720  48.3999100 157.8913574   1.1970646
  47.4793625 157.3979034   0.8852954  48.2733002 158.9725647   1.1416736
  49.1388664 157.6294250   0.4398025  47.7705498 157.7465363   3.6037197
  48.1428032 157.7102051   4.6275382  47.3093071 158.7084503   3.3799267
  47.0489845 156.9471893   3.4349194  50.0217514 153.8614502   3.8335869
  49.2091789 153.0511932   4.2523813  51.1316109 153.4441986   3.2759323
  51.8495293 154.1284027   3.0846903  51.4276733 152.0249634   2.9385166
  51.1499252 151.4153137   3.7983427  50.5582237 151.5895081   1.7391052
  49.5232735 151.8011169   2.0078099  50.8484650 152.1510773   0.8511282
  50.7455330 150.0800781   1.4155937  51.7805481 149.8550873   1.1582608
  50.4378395 149.4863434   2.2763455  49.8370705 149.7479401   0.2225109
  48.5975113 149.7283020   0.3144255  50.3898773 149.4362640  -0.8574446
  52.9414558 151.8431396   2.7400069  53.6199417 152.7308350   2.1971824
  53.4857864 150.6756744   3.2086420  52.9341164 149.9636383   3.6655543
  54.8979111 150.2478180   2.8741140  55.3662491 150.9315338   2.1660817
  55.8256989 150.3670044   4.1223826  55.5952873 149.5948029   4.8563547
  57.2671700 150.1104279   3.6826043  57.5724487 150.7214203   2.8331370
  58.0003853 150.2794342   4.4712286  57.3670883 149.0836029   3.3308229
  55.7776718 151.7085571   4.8399534  56.2762833 152.4225616   4.1844440
  54.7400703 152.0078278   4.9880352  56.4491920 151.7688293   6.2805977
  57.5008392 151.4822845   6.2751312  56.3492279 152.7748260   6.6881514
  56.0378075 151.1260529   7.0588646  54.8665619 148.8807678   2.1652176
  54.3295135 147.9051971   2.6546500  55.5707932 148.8034973   0.9991258
  56.1467247 149.6042633   0.7819190  55.7461357 147.6257782   0.0602341
  55.1014175 146.7873688   0.3239114  55.3266258 147.9707947  -1.3818547
  54.3649216 148.4837341  -1.3928571  56.0152779 148.7524567  -1.7025857
  55.3894272 146.7937469  -2.4119649  56.4296379 146.5614929  -2.6402566
  54.9149132 145.8917084  -2.0256162  54.6022682 147.0801849  -3.6850820
  53.5579300 147.1430969  -3.3793013  54.9470024 148.0264893  -4.1019411
  54.6972046 145.9475250  -4.7029819  54.9971886 145.0742493  -4.2937059
  54.6061134 146.0121460  -6.0178976  54.4383316 147.1922607  -6.5533834
  54.2025375 147.9945374  -5.9869542  54.0489044 147.1613617  -7.4847746
  54.8660660 144.9081879  -6.7618289  55.0974579 144.0332947  -6.3133531
  54.7326012 144.9818573  -7.7602587  57.2139549 147.1649933   0.1780404
  58.0938110 147.9994049   0.0058474  57.4356766 145.8567352   0.3854839
  56.6808662 145.1860199   0.3630503  58.8524246 145.3199310   0.1018119
  59.5906143 146.1206360   0.1471575  59.2646027 144.1441193   1.0509367
  58.7532692 143.2136078   0.8043923  60.7597427 143.9291687   0.9572086
  61.2617912 144.8937378   1.0323616  61.2193604 143.3334198   1.7458367
  61.0236092 143.4614410   0.0086796  59.0379753 144.5046997   2.4003615
  58.0910339 144.6162262   2.5119815  58.9689026 144.7800751  -1.3123982
  58.0940285 143.9543762  -1.6968075  59.8277893 145.3469238  -2.1799698
  60.4380760 146.0845490  -1.8581835  60.0494652 144.8344574  -3.5659482
  59.0693741 144.6253662  -3.9946678  60.7953682 145.8834076  -4.3999405
  61.5949478 146.3360291  -3.8135059  61.3077316 145.3386078  -5.1928954
  59.8305130 146.9173737  -5.1240029  58.9047012 146.4898376  -5.5089526
  59.5123596 147.6334839  -4.3663411  60.3833694 147.6970825  -6.3083925
  60.2219620 148.8691864  -6.4998059  61.1108017 147.0907745  -7.2452636
  61.5013618 147.7036591  -7.9466481  61.2496109 146.0905609  -7.2657280
  60.9182968 143.5357666  -3.4391284  61.6060486 143.2503967  -2.4319711
  60.9905510 142.8772125  -4.5544252  60.4800148 143.2503662  -5.3419633
  61.5388489 141.5231018  -4.7318206  61.0447006 140.8957672  -3.9899540
  61.2580948 140.9264679  -6.1270485  61.9733620 141.3885803  -6.8074522
  61.4872169 139.8608246  -6.1262770  59.8978462 141.1435394  -6.5837383
  59.8909531 141.4584198  -7.4906039  63.0288658 141.4280701  -4.5130773
  63.5313873 140.4373322  -4.0038090  63.8147621 142.3955536  -4.9571476
  63.3321075 143.2180176  -5.2898712  65.2628098 142.4076385  -4.8858743
  65.6642838 141.4432526  -5.1971374  65.7450790 143.3822937  -5.9678531
  66.8271255 143.3048859  -6.0740399  65.4523468 143.0493469  -6.9636254
  65.4874420 144.8596191  -5.7608409  64.6147003 145.2333374  -4.9380908
  66.0958710 145.6816406  -6.4876270  65.7553329 142.8210602  -3.5192518
  66.9295883 142.6000671  -3.2170732  64.8945541 143.4425964  -2.6529570
  63.9603615 143.6431580  -2.9803123  65.3401031 143.8599396  -1.3227094
  65.0563202 143.1518250  -0.5441573  66.4084473 144.0760498  -1.3168309
  64.7088242 145.1660614  -0.8551162  64.1424103 145.1512451   0.2759171
  64.7714310 146.2650909  -1.6275381  65.1101608 146.1975098  -2.5766404
  64.3742981 147.6045837  -1.1603354  64.9061584 147.7447662  -0.2192864
  64.9151459 148.7787781  -2.0091286  64.5483017 149.6726685  -1.5046866
  66.4734955 148.9036407  -2.0757284  66.8912735 148.0883789  -2.6664197
  66.8654861 149.8431702  -2.4652400  67.0335541 148.7460327  -1.1539941
  64.3183975 148.7815704  -3.5125902  65.0608521 149.0273590  -4.2718401
  63.9577026 147.7771759  -3.7343524  63.1830559 149.7839813  -3.5913622
  63.5935211 150.7937469  -3.5939355  62.6356926 149.4555054  -4.4748716
  62.4942169 149.5664368  -2.7751088  62.8688698 147.8431702  -0.8974400
  62.0471458 147.1645660  -1.4974154  62.4595985 148.8134308  -0.0650575
  63.2012939 149.2798920   0.4373427  61.1103745 149.1364441   0.2942943
  60.5080757 148.3624420  -0.1813653  60.8067055 149.2175751   1.8818743
  61.2998199 150.0894928   2.3116455  59.7424583 149.4341278   1.9745445
  61.0913124 147.8978729   2.6139841  60.5803032 147.1281128   2.0356860
  62.1519470 147.7185974   2.4378688  60.6444931 147.7475433   4.0921388
  61.1495247 148.4710388   4.9838452  59.7769852 146.7716827   4.3702269
  59.4615822 146.7064209   5.3275008  59.6247864 146.0151215   3.7186482
  60.5862770 150.3999176  -0.4506870  61.1656113 151.4844208  -0.4105829
  59.3954620 150.3338013  -1.0743660  58.8470535 149.4856567  -1.0727156
  58.6429710 151.4846344  -1.5460918  59.2900810 152.3404846  -1.7381115
  57.8961029 151.1301727  -2.8563635  57.2820244 150.2318878  -2.7923503
  57.2015572 151.9591370  -2.9924319  58.7643929 150.9179382  -4.1387424
  59.6028595 150.2488556  -3.9453638  58.1622696 150.3224335  -4.8249874
  59.3194885 152.1789551  -4.8120241  59.1651955 153.2916870  -4.3125162
  59.9455719 152.0239258  -5.9890399  60.3705444 152.8433533  -6.3989592
  60.0022812 151.0798492  -6.3434315  57.6348457 151.8386230  -0.4295702
  57.0244904 151.0300293   0.2900036  57.2669258 153.1315765  -0.4752018
  57.7981339 153.8448334  -0.9539241  56.2924614 153.7042389   0.5007496
  55.5858498 152.9122772   0.7489145  57.0775948 154.1643219   1.7655599
  57.6370850 155.0798035   1.5732107  56.4823418 154.3839722   2.6518643
  57.8129349 153.4213257   2.0743134  55.4981232 154.8199463  -0.1563418
  56.1215820 155.7812805  -0.6238104  54.1836967 154.6928558  -0.1693595
  53.8730736 153.8278809   0.2494772  53.2282982 155.7549286  -0.3979948
  53.6309776 156.3686981  -1.2037482  51.8944778 155.1858521  -0.9066390
  51.4367485 154.5972595  -0.1115700  51.2660294 156.0653534  -1.0467658
  51.9149017 154.4583893  -2.2459712  52.2963448 155.1230316  -3.0211279
  52.5409660 153.5785675  -2.0974703  50.4740295 154.0126801  -2.6532497
  50.1222153 153.2843628  -1.9225731  49.8633194 154.9120331  -2.5739067
  50.4158592 153.4862671  -4.0938292  49.3608551 153.4953003  -4.3676648
  50.8651657 154.2252045  -4.7573075  50.9513283 152.0303040  -4.2919111
  50.4719429 151.3387604  -3.7332947  50.9448929 151.7107544  -5.2500067
  51.9463921 151.9784393  -4.1268239  53.0307159 156.6071777   0.8567127
  52.8729973 156.0943756   2.0087817  53.1789970 157.9670410   0.6622609
  53.3714981 158.2423859  -0.2902214  53.2242508 159.0613556   1.6862159
  52.7917824 158.4972687   2.5125842  54.7059975 159.4265747   1.9678905
  54.6312294 160.0124512   2.8839958  55.6943741 158.2831116   2.1979280
  55.8079796 157.6448517   1.3216808  56.6520233 158.7362366   2.4542415
  55.3527794 157.7067566   3.0577197  55.2838135 160.2823029   0.8665580
  54.7379379 161.2113495   0.7021838  56.2679138 160.6824341   1.1105887
  55.4042931 159.6857605  -0.0377127  52.3966599 160.2413788   1.2757528
  51.9679222 160.3372498   0.1019076  52.1897926 161.2010193   2.1779916
  52.5302200 161.1043549   3.1239657  51.4759865 162.4975281   1.8765658
  51.4533615 162.6340027   0.7953798  49.9552498 162.4732361   2.3482251
  49.5210800 161.6410980   1.7940125  49.9350166 162.2887726   3.4223163
  49.1668930 163.7534027   2.1973844  49.7833939 164.5472870   2.6190195
  49.0627708 163.9463043   1.1296546  47.8021049 163.7290649   2.8025391
  46.9601288 162.8460388   2.6228406  47.5160828 164.7888489   3.5851288
  46.5814018 164.8805695   3.9566967  48.1666718 165.5438690   3.7487712
  52.2615662 163.6053009   2.5349729  52.5582008 163.5713501   3.7484519
  52.7263031 164.5262146   1.6678609  52.5220490 164.4303589   0.6833855
  53.6549454 165.5995941   2.0369821  54.3090172 165.1406250   2.7783623
  54.5327721 166.1479187   0.8203700  53.8415718 166.2884674  -0.0106541
  55.0721664 167.5739136   0.9992802  55.6163292 167.6443787   1.9411016
  55.7340279 167.8843994   0.1907964  54.2448769 168.2804260   0.9318608
  55.7706299 165.3036346   0.4379025  56.3923798 165.6947327  -0.3674323
  56.4616661 165.4617615   1.2658885  55.5063591 163.8239899   0.1870064
  54.7692871 163.6074066  -0.5862356  56.3741608 163.1986389  -0.0226553
  55.0993385 163.3932800   1.1018386  53.0119171 166.7119904   2.8444929
  52.0528107 167.3981018   2.3886397  53.5855942 166.9040222   4.0406361
  54.5016670 166.5295258   4.2422819  53.0587616 167.8450928   5.0292640
  51.9848404 167.9750977   4.8955040  53.3347740 167.1369476   6.3811460
  54.4016876 166.9145050   6.3988748  53.2365570 167.7966309   7.2432890
  52.6719131 165.7737274   6.6106453  53.0706787 165.0022430   5.9519334
  53.0648994 165.1514587   7.9774461  52.7587891 165.8110352   8.7894650
  52.5679703 164.1886597   8.0964651  54.1230659 164.8997650   8.0484200
  51.0736618 165.8366394   6.5907292  50.6458015 165.9128876   5.5911145
  50.5921516 164.9951935   7.0889406  50.7831192 166.7017365   7.1867871
  53.7101822 169.2364502   5.0057926  54.9257202 169.2701111   4.8753624
  52.9415855 170.2707214   5.1138501  51.5106506 170.2836914   4.9717517
  51.1246033 169.6711884   5.7865591  51.3949661 170.0064545   3.9239624
  51.0169411 171.7378998   5.1669312  50.8708839 172.0703583   6.1946692
  50.1099968 171.9031982   4.5853539  52.2292290 172.4915619   4.5986667
  52.2343445 173.5525513   4.8484454  52.2780037 172.4858856   3.5097721
  53.4084473 171.6560516   5.1605096  54.3380470 171.7640381   4.6016912
  53.6550484 172.1061096   6.6002135  52.9880486 171.6935272   7.5468030
  54.4386292 173.1860504   6.7625289  54.8333321 173.6157379   5.9380980
  54.3285408 174.0662537   7.9374194  54.3975945 173.4965973   8.8641462
  55.4134026 175.1642914   7.8892536  55.3344803 175.7518921   6.9745903
  55.2595329 175.8040466   8.7582445  56.8298378 174.5517273   8.0280552
  56.8979416 173.6898193   7.3643084  57.6568756 175.2151184   7.7750359
  57.0802307 174.0397491   9.4255695  57.7950325 174.7828064  10.1698895
  56.6737137 172.8955536   9.7336559  52.9353523 174.8111877   7.9176493
  52.5390968 175.4611511   6.9796090  52.2119942 174.7862854   9.0228081
  52.5801964 174.3565826   9.8593998  50.9624023 175.6230621   9.2225304
  50.5096169 175.6743011   8.2323494  49.9800720 174.9730682  10.1994896
  50.4330177 174.7645264  11.1687450  49.1911392 175.7146301  10.3250542
  49.5366859 173.5985107   9.6892538  49.0723953 173.6600647   8.7050056
  50.3797073 172.9108887   9.7570305  48.4865227 173.0466461  10.6529379
  48.2795258 172.0183563  10.3564644  48.8058357 172.9794922  11.6929522
  47.1767235 173.6992188  10.6206083  46.7149582 173.4593201   9.7549744
  46.4733047 174.3339691  11.5638838  46.9174118 174.5274811  12.7591457
  47.9042435 174.4029083  12.9344959  46.3305092 175.0002441  13.4315634
  45.3370476 174.8662872  11.3721819  44.9156914 174.7881775  10.4576006
  44.8489189 175.3043976  12.1402302  51.3132744 177.0185089   9.6568384
  51.2471352 177.3533478  10.8254719  51.7344208 177.7865295   8.6950264
  51.7651100 177.3999481   7.7624373  52.4311829 179.0533600   8.9808044
  53.1267242 178.9071045   9.8072014  53.2366447 179.5494537   7.7670655
  52.5819702 179.7552490   6.9202213  53.9386215 180.9191589   8.0884094
  54.2392731 180.9562836   9.1354713  54.8374443 180.9793243   7.4747376
  53.1732140 181.6752014   7.9133554  54.2861786 178.4816589   7.4365191
  53.8438606 177.6111450   6.9520969  55.0222588 178.7935944   6.6955891
  54.9348526 178.2143860   8.2707253  51.2999802 180.0797119   9.3638678
  50.4517288 180.3203278   8.5580788  51.3286819 180.7055206  10.5765276
  52.1456375 180.5910339  11.1592579  50.3116722 181.6241302  11.1479635
  49.4108391 181.4138336  10.5714426  50.1637154 181.2670288  12.6328068
  51.1056862 181.3538971  13.1743269  49.4179611 181.9501495  13.0393829
  49.6878166 179.8626404  12.9442129  50.4559174 179.1201019  12.7279863
  49.2000732 179.7167969  14.4177799  48.3282127 180.3298340  14.6461496
  48.9261436 178.6846313  14.6361675  49.9999466 180.0232239  15.0918770
  48.3622551 179.5778351  12.2254992  48.5275726 179.5420837  11.1486979
  48.0195885 178.5751801  12.4811878  47.6424332 180.3874817  12.3455811
  50.7685547 183.0837860  10.9124613  51.9466820 183.4246063  11.0519905
  49.7990685 184.0136414  10.7016563  48.3786392 183.7357483  10.4581013
  47.9373512 182.9971161  11.1272650  48.4394379 183.4526978   9.4072523
  47.6777496 185.0963135  10.5895100  47.3334160 185.2017975  11.6182985
  46.8261871 185.1370392   9.9103270  48.7784958 186.0632629  10.1868629
  48.6307297 187.0371094  10.6536465  48.8721886 186.1805420   9.1072483
  50.0695763 185.4166718  10.7068195  50.9251862 185.5724030  10.0497179
  50.4552307 185.8905792  12.0923882  50.1647263 185.2437744  13.1390104
  50.8446655 187.2174377  12.2103033  51.2017746 187.7681122  11.4426136
  50.8892365 187.8024445  13.5855494  51.5861893 187.2600098  14.2243958
  51.2936287 189.2705536  13.3780966  52.2844200 189.3693695  12.9346218
  50.6426544 189.8441925  12.7183456  51.2493095 189.8837738  14.6186466
  51.5403290 190.7888947  14.4857521  49.4694710 187.6933899  14.2695866
  48.4620476 187.8354797  13.5925884  49.3396606 187.3976288  15.5811939
  50.1373787 187.3179474  16.1955204  48.0051155 187.2523499  16.2213707
  47.5340576 186.3624725  15.8038597  48.2375298 186.9372253  17.7172947
  47.2878304 186.9370728  18.2522449  48.9417191 185.5973511  17.8612919
  49.8319397 185.5503540  17.2340775  49.2260246 185.5321808  18.9115410
  48.2750702 184.7999725  17.5328331  49.0679092 188.0303955  18.2669582
  48.5512505 188.5430756  18.8929119  47.1168060 188.4286957  16.1900539
  45.9161415 188.2617798  16.1564465  47.7425117 189.6093445  16.2027206
  48.7434349 189.5549622  16.0790367  47.0964699 190.8877258  16.2818851
  46.3220139 190.8335266  17.0469875  48.0529175 192.0034180  16.8240738
  48.7756195 192.2589417  16.0491447  47.3986664 192.8670349  16.9434223
  48.7435799 191.9289856  18.1770458  49.2241096 190.9506378  18.1709919
  49.4960289 192.7172699  18.1997967  47.7398071 192.1429596  19.7036915
  46.7361031 190.6028137  19.8564873  47.4444084 189.7921600  20.0275078
  46.1250992 190.7531738  20.7465267  46.0066490 190.3417053  19.0897923
  46.5125313 191.2284088  14.9201441  45.5956306 191.9885864  14.8201246
  46.9559746 190.6630554  13.7703180  47.6314888 189.9145813  13.8300409
  46.6168404 191.1147766  12.3595228  46.9418488 192.1551971  12.3572435
  47.4474106 190.3625946  11.3215361  47.6241493 190.9421082  10.4154282
  48.4462013 190.2623138  11.7463408  46.8354568 189.1094513  11.0522308
  46.1867905 189.1421814  10.3452950  45.0412178 191.1581573  12.0830822
  44.5564156 192.0756073  11.4458809  44.3208389 190.1718445  12.5205936
  44.7602692 189.4300995  13.0467262  42.8608284 190.0360260  12.4497766
  42.5312500 190.5012054  11.5207548  42.5683098 188.5876007  12.6247530
  42.7888069 188.4455566  13.6827269  41.5381012 188.3955841  12.3249187
  43.1971474 187.9945526  11.9607058  42.0658150 190.9094238  13.4697514
  40.8627205 190.9553375  13.4386520  42.8349419 191.6320496  14.3190680
  43.8429260 191.5687103  14.3261347  42.2609673 192.5741730  15.3754911
  41.1871986 192.6193542  15.1936312  42.3676414 192.0434265  16.8550472
  42.4058952 190.9610291  16.7324409  43.6806717 192.4096985  17.5819416
  43.5888748 193.4592133  17.8615894  43.8327408 191.8420715  18.4999714
  44.5674438 192.1748810  16.9932175  41.0977173 192.3691101  17.6903553
  40.2604294 191.8142395  17.2670746  41.2607040 192.0319672  18.7140083
  41.0234566 193.4563446  17.7130070  42.6768188 194.0806122  15.2860441
  41.8664894 195.0093689  15.5828772  43.8630638 194.2992401  14.7600918
  44.4133377 193.4525146  14.7413740  44.5579185 195.6246948  14.8214159
  44.1885223 196.1936646  15.6745930  46.0307655 195.3264923  15.1319265
  46.4842606 196.2253876  15.5495682  46.0778122 194.5585022  15.9039898
  46.7951927 194.8416290  13.9235392  46.3891945 193.8542480  13.7036972
  46.5095596 195.4246521  13.0479765  48.3248329 194.8968658  13.9394741
  48.9431686 195.1394348  14.9823360  49.0313416 194.7601624  12.8276653
  50.0086746 195.0131836  12.8576488  48.5338974 194.7474670  11.9487524
  44.2955780 196.5697937  13.6209688  45.1767464 197.3454132  13.2055931
  43.1587677 196.4495544  12.9481115  42.4223175 195.8444061  13.2820797
  42.8560638 197.3603058  11.8113546  43.7535477 197.6026306  11.2422256
  41.8820686 196.6703491  10.7824240  40.8730659 196.6657104  11.1947289
  41.8821869 197.3619537   9.9399328  42.4114647 195.2642670  10.2989416
  43.4906960 195.2053833  10.1578751  41.8783073 194.1348419  11.2263737
  40.8030167 194.2424316  11.3687563  42.1217308 193.2232971  10.6805468
  42.4193039 194.1006317  12.1720238  41.7521362 194.9632874   8.9888935
  42.0473595 195.6457367   8.1918869  41.8834381 193.9149170   8.7209883
  40.6939392 195.1828918   9.1306725  42.3357239 198.6449432  12.3770638
  41.1623611 198.9876556  12.2900572  43.2271271 199.4463043  12.9548998
  44.1730957 199.1090393  12.8477039  43.0087471 200.8723907  13.2673845
  42.2651215 201.2746887  12.5794325  42.3844070 200.9367523  14.6946802
  42.0101433 201.9582977  14.7615061  41.5124016 200.2827911  14.7011480
  43.5125046 200.6337891  15.7186680  44.3309975 200.0522156  15.2944841
  43.9555511 201.5484467  16.1126652  43.0205574 199.6828613  16.8420811
  43.3474197 198.4753723  16.8879890  42.1618347 200.1997070  17.6636505
  41.7946243 199.5484314  18.3426838  41.9546967 201.1693878  17.4714985
  44.2802467 201.6441650  12.9022236  45.2293816 201.0623627  12.4082384
  44.2809067 202.9185486  13.1871233  43.4630394 203.3425903  13.6011047
  45.4034996 203.7993164  12.9224920  45.5357361 203.7120361  11.8440676
  45.0344658 205.2417755  13.2351618  45.8296928 205.8886719  12.8647146
  44.0993881 205.5153198  12.7463846  44.8889275 205.4890137  14.6042767
  44.3607788 206.2902832  14.6295967  46.7510834 203.3700409  13.5723429
  47.8201218 203.8894653  13.1051073  46.8010254 202.5727844  14.6247101
  45.9324875 202.3691711  15.0982952  47.9955788 202.1374817  15.3418980
  48.6622887 202.9785919  15.5319881  47.6248665 201.6345673  16.7300663
  46.7694626 200.9638367  16.6494713  48.4940643 201.1043701  17.1192703
  47.2793465 202.6848450  17.7304783  47.9744492 203.5181427  17.6278076
  45.8813515 203.4175110  17.6569366  45.0834427 202.7171631  17.4100494
  45.6978874 203.9827271  18.5707054  46.0205917 204.1164246  16.8321705
  47.4224548 202.0401306  19.0827618  48.4888153 201.8545837  19.2114563
  47.0635185 202.7437744  19.8338547  46.8855782 201.1003571  19.2120380
  48.8196640 201.0624084  14.5641699  49.9582176 200.6782684  14.9629784
  48.3203087 200.5054321  13.4523621  47.4465790 200.8431091  13.0746479
  48.9281616 199.2401581  12.8598642  48.9563217 198.5140381  13.6723032
  48.0085487 198.7415924  11.6837416  48.4356766 197.8070068  11.3201618
  47.0834694 198.5873260  12.2391949  47.9330902 199.6991425  10.6092205
  46.9902992 199.8319244  10.4862843  50.3545761 199.4105377  12.2785072
  51.2570534 198.5973816  12.4714899  50.5549393 200.5690918  11.5950060
  49.7585449 201.1798096  11.4815931  51.7918777 201.1283722  10.9538612
  52.1183739 200.5392151  10.0969000  51.3896294 202.4809875  10.2657156
  52.2348442 202.8520966   9.6860695  50.7112846 202.2164917   9.4545460
  50.6628075 203.4442902  11.1497297  49.6031761 203.2178955  11.2681761
  51.0993958 203.5477600  12.1431017  50.6779175 204.8029327  10.4279432
  51.6991539 205.1006165  10.1901121  50.1253700 204.6334229   9.5037909
  49.9894791 205.8383789  11.2166824  49.6116028 205.6479034  12.1337624
  49.7624397 207.0400543  10.8141441  50.3722534 207.6599274   9.8208523
  50.7812386 207.0751648   9.1060991  50.0783310 208.5912476   9.5632076
  48.9621925 207.7500763  11.5694084  48.4183350 207.2874298  12.2837543
  48.8354836 208.7314148  11.3669043  53.0141296 201.3592377  11.9171009
  54.0647316 201.7641907  11.3323936  52.9168396 201.1350708  13.2618465
  52.1307106 200.6212616  13.6334686  54.1512680 201.1409607  14.0772896
  54.6988831 202.0432587  13.8051033  53.8323746 201.2398682  15.5629539
  53.3803673 200.2702026  15.7716446  54.7476921 201.3110352  16.1505203
  52.8773766 202.3687286  15.9898996  53.2867317 203.2971802  15.5917645
  51.8743401 202.1973114  15.5992079  52.8077583 202.4141388  17.5612984
  51.7653961 202.5687866  17.8399925  53.1119308 201.4419250  17.9490929
  53.5308838 203.4832611  18.2444248  54.0308266 204.0845032  17.6051502
  53.4576492 203.8365021  19.4974689  52.5646324 203.3707428  20.2920761
  51.9893990 202.6242065  19.9289112  52.4367142 203.6389465  21.2573776
  54.2198219 204.8255615  19.9364738  54.8158875 205.3083191  19.2793922
  54.1090164 205.1276703  20.8938389  55.0162125 199.9095917  13.7288418
  54.8977890 198.7584839  14.2410774  55.8110886 200.1502838  12.7124014
  55.8084679 201.0728455  12.3013315  56.6994286 199.1928101  12.0456657
  56.3271751 198.1831818  12.2194700  56.7512932 199.5287476  10.5585289
  55.8346863 199.8815918  10.0858431  57.5391655 200.2728271  10.4414463
  57.0782089 198.3840027   9.6496658  58.0094528 198.5077515   8.5776625
  58.1950569 197.2708130   8.0683289  58.7541504 197.0357208   7.1747160
  57.3929405 196.3942108   8.6488829  57.2376900 195.4459991   8.3375883
  56.6466637 197.0725403   9.6424236  55.8752594 196.6598969  10.2757158
  58.0369453 199.1381989  12.8080034  58.2418747 199.9412079  13.7466202
  59.0269585 198.3684845  12.3452730  58.9749756 198.0594330  11.3851213
  60.1426849 197.7586212  13.1421900  60.1048279 198.1478424  14.1596327
  59.9414978 196.2044373  13.1838188  60.7255554 195.6898499  13.7392941
  58.6649666 195.9305420  13.9492254  57.7928543 196.3963470  13.4903898
  58.5257759 194.8494873  13.9560413  58.6920853 196.1668396  15.0129604
  59.9273186 195.4899902  11.7905512  58.9057884 195.5484924  11.4148359
  60.6024475 196.0019073  11.1048088  60.2866783 194.0290985  11.6911478
  59.6011620 193.4079742  12.2676659  60.1748924 193.6906891  10.6610603
  61.2428360 193.7415314  12.1283693  61.5624084 198.3098450  12.8568544
  61.7625122 199.0457916  11.8774061  62.6528587 198.0388489  13.6020870
  63.4358025 198.5295563  13.1942778  63.0164604 196.9798889  14.5150776
  63.9993210 197.2172852  14.9221783  62.2203064 196.8489685  15.8406439
  61.3391075 196.2376251  15.6461048  62.8581543 196.2856903  16.5218067
  61.7103653 198.0537262  16.6968441  62.2399597 199.3946533  16.6106148
  63.0463676 199.5351410  15.9060831  61.7627335 200.4614410  17.3470840
  62.1189537 201.4797821  17.2973289  60.7242813 200.2128601  18.3250008
  60.3338165 201.0334930  18.9085197  60.2732658 198.8923798  18.4749088
  59.5211334 198.7099609  19.2281780  60.7030640 197.8623657  17.6692963
  60.2977409 196.8623657  17.7154751  63.3442993 195.6430206  13.7053375
  63.4198418 195.6546631  12.4750814  63.7454033 194.5807953  14.4352646
  62.8384972 193.7745667  15.3137217  61.8003044 193.8952789  15.0043869
  62.9683800 194.1325684  16.3350258  63.3847656 192.3670044  15.1920071
  63.1848679 191.8884583  14.2332926  62.9705620 191.7412872  15.9825878
  64.8721695 192.7105713  15.2651644  65.4340134 191.8561859  14.8877125
  65.1503525 192.9221344  16.2976151  65.0871429 193.9578552  14.4314680
  65.6947861 194.6487579  15.0158739  65.7412491 193.7289276  13.0825424
  65.1047211 193.6435089  12.0170536  67.0718536 193.5931854  12.9080248
  67.4536591 193.4608765  11.9823761  68.1367874 193.9603119  13.8898973
  69.0052414 193.8813324  13.2359543  68.3079071 192.9198456  15.0685978
  69.1184998 193.2824860  15.7006750  67.3939285 192.9669800  15.6606464
  68.4991608 191.6229706  14.5388775  69.4521866 191.5095825  14.5610256
  68.0782166 195.4072876  14.3872690  67.6266861 196.2999268  13.6617527
  68.5987625 195.6800385  15.6017771  68.9526978 194.9042053  16.1429882
  68.1784515 196.8442841  16.3625431  67.1792603 197.0230255  15.9653406
  67.8411484 196.3466797  17.7965755  67.6916122 195.2672729  17.7715950
  68.7343369 196.4799500  18.4069557  66.6689682 196.8949738  18.3388824
  66.5851059 196.7770691  19.2879162  68.8534546 198.2269135  16.3317375
  68.5119476 199.1432953  17.1080551  70.0186005 198.5529175  15.6247311
  70.4406128 199.4274750  15.9024630  70.7841797 197.9745178  14.4752321
  71.7173615 198.5298767  14.5692129  70.1819839 198.3206177  13.0741806
  69.1921310 197.8994751  12.8982887  70.1602554 199.4073792  12.9932003
  70.9817886 197.7916260  11.8054285  70.7906342 196.7292480  11.6540928
  70.4857712 198.2904816  10.9728308  72.5212784 198.0998993  11.8032665
  72.9868240 197.9461060  12.7767744  73.0142822 197.3752136  11.1552830
  72.8744583 199.4755554  11.2596941  72.0994873 200.2001343  11.5097179
  73.8460083 199.7028046  11.6984892  72.9279861 199.4861603   9.7650852
  72.0688705 199.1765594   9.3336115  73.2179565 200.4025269   9.4547825
  73.7148743 198.9900208   9.3717003  71.3609467 196.5997772  14.6866388
  71.2491074 195.7908173  13.7773237  71.9594574 196.2768097  15.8660173
  71.6533051 196.6006775  17.2871037  70.7347260 197.1354675  17.5286121
  72.5297241 197.1475372  17.6348591  71.5718918 195.2070770  17.9095421
  70.6366730 194.6728058  17.7421131  71.7257843 195.3083038  18.9838638
  72.7648315 194.5007324  17.2475376  73.6589279 194.6203003  17.8594246
  72.5665207 193.4348145  17.1353817  72.9366760 195.1859589  15.9205818
  72.8713760 194.4227295  15.1451311  74.3517303 195.7239685  15.9204149
  75.3051834 194.9791412  15.7642899  74.5515137 196.9981232  16.3076763
  73.7313690 197.5645142  16.4709530  75.8265915 197.7475739  16.2869205
  76.2972260 197.5703735  15.3198624  75.5245438 199.2713623  16.3987579
  74.7163925 199.4416962  15.6874323  75.3388748 199.6153412  17.4162560
  76.7100906 200.1907654  16.0427895  77.4732819 199.8464508  16.7407074
  76.9142303 200.0551910  14.9806948  76.5779495 201.7398529  16.3270760
  76.3423767 201.9440002  17.3715534  77.5370255 202.1875305  16.0665798
  75.5693970 202.4649506  15.5275164  75.7686081 202.1712646  14.4969044
  74.5745392 202.0872345  15.7635689  75.6117020 203.9911804  15.7319136
  76.4947433 204.4283447  15.5100441  74.9134674 204.4114838  15.1353378
  75.4569016 204.4183197  16.6339569  76.7191620 197.2465668  17.4143829
  77.9423523 197.2025146  17.2192574  76.1277771 196.9080048  18.5540504
  75.1230774 196.8439484  18.4728680  76.7710953 196.8703613  19.8945065
  77.6437454 197.5115662  19.7702141  75.8514099 197.4167175  21.0193176
  76.4378052 197.3824005  21.9375057  75.6973801 198.9080963  20.7063713
  75.1094742 199.0858154  19.8058834  75.1926651 199.3255463  21.5776348
  76.7086563 199.3034363  20.6108017  74.5553360 196.6576080  21.2212448
  74.8244171 195.6283417  21.4585285  73.9282379 197.0881805  22.0019188
  73.9373550 196.6847382  20.3237667  77.3674545 195.4882660  20.3436413
  77.4839401 195.2030945  21.5473270  77.6153641 194.6414032  19.3632679
  77.3942184 195.0084686  18.4486923  78.3011780 193.3195038  19.4921856
  78.1630402 192.7400818  18.5793343  79.8586121 193.6775665  19.7295933
  79.9665451 194.0621643  20.7437649  80.5866699 192.8726501  19.6288815
  80.5198669 194.6682739  18.8312035  81.3406525 195.7446747  19.1712780
  81.6570053 196.0699463  20.1513386  81.9493332 196.1902008  17.9634609
  82.6080322 196.9557953  17.9547348  81.4771652 195.4413300  16.8837624
  81.9413147 195.2702332  15.5711432  82.7378922 195.8962860  15.1970921
  81.4639816 194.3493805  14.6848879  81.7998810 194.3866425  13.6591291
  80.4121628 193.5127106  15.1611271  79.9483795 192.7585907  14.5425835
  79.9881668 193.5568237  16.5343819  79.2723160 192.8687744  16.9592896
  80.5873871 194.4772644  17.3985996  77.8079071 192.3618622  20.6127586
  78.6334686 191.5869141  21.0730038  76.5171051 192.4187012  21.1021194
  75.9026260 193.1182556  20.7107697  76.0029984 191.6046753  22.2434807
  76.8097382 190.8938446  22.4223785  74.7576447 190.8044434  21.7848587
  73.9767075 191.0790253  22.4939728  74.4951935 191.1757202  20.7942162
  74.8079910 189.2408447  21.7773571  73.7997513 188.8433380  21.8937187
  75.1378250 188.9749603  20.7730579  75.7391357 188.4436493  22.7476940
  76.3089066 189.0184479  23.6733170  75.9462509 187.1279907  22.5876713
  76.3439026 186.5908661  23.3449535  75.5313034 186.5817413  21.8463650
  75.8080368 192.3922729  23.5548477  74.8211212 193.1102905  23.6650963
  76.6855621 192.1252289  24.5448742  77.3806839 191.4080963  24.3944626
  76.5060120 192.5512848  25.9769440  76.1552963 191.6653290  26.5062485
  77.9041061 192.8673248  26.6443577  77.8557053 193.4246368  27.5798569
  78.2943344 191.8638306  26.8141422  78.8769379 193.4780426  25.6411304
  78.7012711 194.7039490  25.3220539  79.7937775 192.7507629  25.1176281
  75.5386887 193.6998901  26.2711792  75.7196884 194.8409271  25.7521839
  74.5665588 193.4967346  27.1759090  74.7180557 192.6504822  27.7059898
  73.5794525 194.4685669  27.7133541  72.7104187 193.9854584  28.1600132
  74.1833267 195.3042145  28.9198303  73.4820328 195.9909821  29.3937855
  74.3370056 194.5805969  29.7203751  75.5255051 196.0666962  28.8957977
  75.8449478 196.0499878  29.9378052  76.2244949 195.5014191  28.2793713
  75.5878983 197.5526733  28.4913998  74.6480026 198.0133514  28.7954960
  76.4076385 198.0610809  28.9989948  75.7523041 197.6411133  26.9920006
  74.8899994 197.5374146  26.4764614  76.8879013 197.7808990  26.2917576
  78.0940704 198.0337677  26.8430614  78.2669830 198.0373077  27.8381424
  78.9328918 198.0859222  26.2829266  76.7856140 197.6889954  24.9585037
  77.6307678 197.8705902  24.4361572  75.8906097 197.5732574  24.5049973
  72.9017410 195.3561859  26.7009411  72.5387802 194.8783112  25.6281967
  72.5174484 196.6170044  26.9873600  72.5817184 196.8204498  27.9745655
  71.7659073 197.5516052  26.1349907  71.7801437 198.5073700  26.6588287
  72.5231705 197.7449036  24.7838364  72.6048355 196.8559875  24.1583195
  72.0266953 198.5238647  24.2051907  73.5649490 197.9925690  24.9874535
  70.2527542 197.3817902  25.9382172  69.3924408 198.2133789  26.1321640
  69.8469467 196.2890472  25.2581558  70.4974365 195.5556946  25.0148888
  68.4299622 196.0352173  24.8358269  67.9914017 197.0253296  24.7115173
  68.3646088 195.4337921  23.4191437  67.3444595 195.1141052  23.2065239
  68.5397873 196.2370148  22.7034359  69.3058472 194.2814026  23.0611229
  69.1202469 192.9570312  23.5195503  68.3230362 192.7375031  24.2142887
  69.8723755 191.9257202  22.9591389  69.7831726 190.9263611  23.3587837
  70.8538437 192.1886749  21.9420071  71.3546066 191.3876190  21.4185867
  71.1182098 193.5804749  21.6132259  71.7981720 193.8692017  20.8253899
  70.3111649 194.5876312  22.0815735  70.5120163 195.6237640  21.8524494
  67.4335175 195.3829193  25.8725910  66.3677597 194.9479218  25.5035152
  67.8081589 195.4204712  27.1874981  68.6758041 195.8565521  27.4652138
  66.9316483 194.9758911  28.2783127  66.6201477 193.9596252  28.0369473
  67.6390228 195.0037689  29.6596031  67.8454361 196.0459442  29.9032669
  66.8953781 194.7475586  30.4142208  68.9552994 194.1889801  29.7912846
  68.7997360 193.2288818  30.2833500  69.3732452 194.0943298  28.7890549
  69.9453125 195.1187897  30.6024055  70.8571625 194.5525665  30.7921925
  70.1360474 196.0184021  30.0172310  69.4506226 195.5143738  31.9558659
  69.2421494 194.7831573  32.6206665  69.3573914 196.7150269  32.4599724
  69.4603195 197.8337402  31.8072701  69.8054504 197.8860931  30.8595104
  69.3459549 198.6789856  32.3481712  69.0454407 196.7924652  33.7266617
  69.1034927 195.9802246  34.3241577  68.8125458 197.6428375  34.2193298
  65.5993652 195.7579956  28.2080822  64.5675735 195.1404877  28.1577473
  65.6352615 197.1073303  28.2578373  66.5701370 197.4745331  28.3639851
  64.5387802 198.0208588  28.1421986  63.8118668 197.8493805  28.9361095
  65.0022430 199.4535065  28.3543034  65.9190674 199.6104736  27.7860680
  64.2399139 200.1740570  28.0580559  65.4315491 199.7900848  29.8597660
  64.6748581 199.2701416  30.4472809  66.3347092 199.2238770  30.0874157
  65.5551529 201.2710419  30.2365417  65.7874298 202.1806335  29.4248695
  65.2511826 201.5207977  31.4742584  65.2407684 202.4837799  31.7786751
  65.1302414 200.7899780  32.1608200  63.8241158 197.8665619  26.8001099
  62.5900726 197.7466125  26.7023773  64.5475769 197.5936127  25.7060127
  65.5515137 197.6632080  25.7918377  63.9861183 197.3544922  24.3902760
  63.2449150 198.1276245  24.1877956  65.0713043 197.5591125  23.3481884
  65.3309784 198.6175079  23.3697987  65.9836960 196.9720764  23.4532909
  64.4725189 197.2459412  21.9957237  63.8615608 198.1604004  21.2004318
  63.6379662 199.1776428  21.4860935  63.1619644 197.4776306  20.2254982
  62.5490761 197.9662476  19.5885296  63.3884048 196.1051483  20.2302513
  62.9436874 195.0617371  19.3720112  62.2068748 195.3108521  18.6227112
  63.4166641 193.7590637  19.6479740  63.0674438 192.9518280  19.0212173
  64.3263626 193.5719604  20.7086601  64.6384277 192.5595551  20.9185677
  64.8065033 194.6196594  21.5344601  65.6063461 194.4032288  22.2271423
  64.3131180 195.9539337  21.3127289  63.1769257 196.0239563  24.2007713
  62.0774689 196.0636292  23.6434040  63.6141968 194.9060822  24.7352600
  64.5238190 194.8810120  25.1735096  62.7847519 193.6573486  24.8117523
  62.5844269 193.4345093  23.7637482  63.6000977 192.4387360  25.3066750
  64.3638458 192.8499756  25.9667263  62.9571800 191.7722168  25.8815784
  64.2047729 191.6862335  24.2022057  65.4891739 191.5830841  23.7673206
  66.3591537 191.9867249  24.2639179  65.5433731 190.9131622  22.5684452
  66.3410950 190.8167267  21.9565296  64.3439789 190.5120544  22.1463509
  63.8445930 189.8826904  20.9610252  64.5317307 189.5740814  20.1870728
  62.4413300 189.6036377  20.8600044  62.0194054 189.1119385  19.9959393
  61.5978699 190.0865479  21.8749924  60.5223846 189.9941864  21.8402367
  62.1095963 190.8063812  22.9813805  61.3844032 191.0637054  23.7391949
  63.4770317 190.9507904  23.1631336  61.5046196 193.8360291  25.5589066
  60.5310020 193.2485657  25.0428238  61.3872528 194.7241211  26.6177578
  62.2275238 195.1477203  26.9846420  60.0865097 195.0554962  27.1972313
  59.5543251 194.1225891  27.3831234  60.3233261 195.7655182  28.5419674
  60.9368439 196.6584778  28.4222221  59.4108391 196.2371368  28.9067211
  60.9042740 194.8778992  29.6560249  60.2286949 194.0472412  29.8602066
  61.8619766 194.4794617  29.3211460  61.1539268 195.6554108  30.9678154
  61.4059944 196.8687897  30.9438190  61.2844505 195.1046753  32.1809654
  61.6314316 195.7069397  32.9137650  61.2030525 194.1170959  32.3763008
  59.2773705 195.8788300  26.2018051  58.1687965 195.5614166  25.9179039
  59.9233475 196.9524994  25.7098236  60.9332657 196.9521637  25.6969166
  59.2595253 197.9760132  24.9242382  58.4132652 198.3276215  25.5144234
  60.1824951 199.1717377  24.6250916  60.9277992 199.3641510  25.3968410
  60.7075920 199.0278168  23.6808167  59.2833900 200.4299011  24.4609222
  58.4351082 200.1825562  23.8226910  58.8342781 200.7524414  25.4002647
  60.0735092 201.5606384  23.8360825  60.9117279 201.8665009  24.4621353
  60.5437698 201.2053223  22.9191818  59.2421684 202.9181824  23.5752029
  59.9627876 203.6604309  23.2318325  58.4366035 202.6530457  22.8904686
  58.6143494 203.5471954  24.7378712  59.2573776 203.7851410  25.4794865
  58.2304764 204.4521637  24.5059509  57.8903046 202.9635315  25.1318188
  58.7056847 197.3730774  23.6673603  57.6551514 197.8516235  23.2080574
  59.4424019 196.5955353  22.9496613  60.3410568 196.3157501  23.3160458
  58.9885139 195.8321991  21.7529583  58.7706337 196.4950562  20.9155521
  60.1198616 194.9298553  21.2032146  60.8031921 195.5987396  20.6799946
  60.7150879 194.5165863  22.0174732  59.8086815 193.7499237  20.2090645
  59.6875420 194.0642700  18.8446350  59.8530235 195.0488281  18.4327183
  59.3021965 193.1052551  17.8993340  59.1296196 193.3427582  16.8600025
  58.9884148 191.7791901  18.2787476  58.3156662 190.9203186  17.3977013
  58.0748138 191.3420410  16.5696011  59.1007996 191.4561920  19.6512985
  58.7767410 190.4845886  19.9939098  59.4673195 192.4126740  20.6223392
  59.5621452 192.1520844  21.6661320  57.7320328 195.0664825  22.0869637
  56.6874924 195.3784485  21.5248222  57.7496262 194.2873688  23.1484795
  58.6448822 194.0534515  23.5533257  56.5353088 193.6418304  23.6324081
  56.1355934 192.9158630  22.9243889  56.8620644 192.7712555  24.8756733
  57.4672546 191.9711151  24.4494915  57.5853310 193.2911682  25.5039101
  55.6468735 192.2973175  25.7345371  55.0453758 193.1824951  25.9413109
  55.1008148 191.5459442  25.1641369  56.0891762 191.7286530  27.0984783
  56.0420876 190.5466919  27.3319588  56.4364662 192.5810852  28.0253143
  56.8153801 192.2525787  28.9020176  56.2792702 193.5603333  27.8343525
  55.3976440 194.6187134  23.9892235  54.2460823 194.2933044  23.5877895
  55.6793175 195.7432861  24.6947441  56.6174164 195.8299103  25.0588436
  54.6154900 196.6785583  25.1324348  53.8869896 196.0695343  25.6676769
  55.2264519 197.6321716  26.1438160  55.6185989 197.0080719  26.9468212
  56.0597229 198.1880341  25.7139759  54.1955185 198.6175385  26.7133884
  53.7443237 199.1353149  25.8669586  53.3510475 198.0812836  27.1462765
  54.8955841 199.5616150  27.6844101  55.4640083 198.9320984  28.3690319
  55.5648918 200.2690430  27.1948395  53.7603569 200.4145203  28.2915974
  53.2749748 200.9654846  27.4860325  53.0113106 199.7976990  28.7881432
  54.2519035 201.4194031  29.3927593  55.0347939 202.0093384  29.1495190
  53.5023689 202.0679321  29.5869522  54.4685822 200.9792328  30.2755985
  53.9747849 197.3917847  23.9205704  52.7873039 197.6697998  23.9030418
  54.7623062 197.6041718  22.8487530  55.7489929 197.4907379  23.0322781
  54.4066467 198.2815399  21.6130161  53.7478714 199.0873566  21.9367123
  55.6499138 198.9343414  20.9580803  56.0358162 199.5131378  21.7972317
  56.2703362 198.0892792  20.6596909  55.3185883 199.7990875  19.7413807
  54.8950539 199.1166382  19.0045033  54.5805283 200.5676117  19.9710140
  56.4571495 200.5390472  19.0312901  57.3689003 199.9505310  19.1335487
  56.2272568 200.5623627  17.9660645  56.7765312 201.9113007  19.5735607
  56.2889099 202.2168274  20.4036121  57.5607376 202.8165436  19.0213661
  58.1739845 202.5985413  17.8629284  57.8858032 201.8465424  17.2533779
  58.5023308 203.3557434  17.2807350  57.8457680 203.9954224  19.5260944
  57.5278854 204.3156738  20.4296932  58.4162369 204.6431885  19.0016232
  53.5707664 197.4429779  20.6641712  52.5705795 197.9721069  20.0975590
  54.0590324 196.2020874  20.5279064  54.9380722 195.9260254  20.9416389
  53.4606094 195.3025208  19.5523376  53.2808533 195.8332672  18.6174011
  54.5106621 194.1636810  19.3000946  55.4146500 194.6676331  18.9581280
  54.7236328 193.6906128  20.2587166  54.0597458 193.1102600  18.2751427
  53.2235031 192.5945740  18.7472305  53.7163811 193.6022949  17.3651390
  55.2315903 192.1895752  17.7624912  56.0587845 192.8251343  17.4463844
  55.6387749 191.6869965  18.6398239  54.8610344 191.1364746  16.7292423
  55.6325378 190.3687439  16.6702328  53.9764938 190.5857697  17.0492649
  54.5392876 191.7711334  15.4095068  55.2048874 192.4871521  15.1557417
  54.5117226 191.0169983  14.7382240  53.6247520 192.1977386  15.4510489
  52.1852684 194.7636108  20.1575203  51.1919022 194.7418976  19.4277229
  52.0781250 194.3847656  21.4179783  52.8050575 194.5502777  22.0993500
  50.8787231 193.6328583  21.9046059  50.3137360 193.2969513  21.0350914
  51.1874428 192.2571106  22.6093655  51.6782990 192.5051727  23.5504436
  50.2371902 191.7419586  22.7498665  52.1616402 191.4173584  21.8203278
  51.6836777 190.6954803  20.7083359  50.6539421 190.7848969  20.3952160
  52.5568428 189.9116821  19.9218693  52.2179108 189.2448730  19.1428471
  53.9013290 189.7984467  20.2930374  54.5648994 189.1310730  19.7632523
  54.4089508 190.4642639  21.4397049  55.4442482 190.4634552  21.7472115
  53.5507126 191.3318787  22.1022339  54.0067787 191.9926758  22.8245525
  49.8795776 194.5468597  22.5655460  49.0358925 194.1071777  23.3113098
  50.0532188 195.8798981  22.4154739  50.8233681 196.2269440  21.8618126
  49.1677246 196.8291626  22.9339066  49.1978111 196.7052155  24.0164185
  49.5735054 198.2615509  22.5721130  50.4191399 198.5248718  23.2074528
  49.9868431 198.3263245  21.5656052  48.4932022 199.3640289  22.5883636
  48.0700951 199.9717255  23.7638302  46.9691238 200.6796112  23.4108772
  46.4741707 201.3774872  24.0699635  46.6602631 200.4734497  22.0930710
  45.8670502 200.9107666  21.6462288  47.6340256 199.6831970  21.5510292
  47.7016830 199.2186432  20.5783920  47.7174911 196.5516815  22.4597931
  46.7462616 196.7393951  23.2178688  47.4821434 196.1521759  21.2011662
  48.2795181 195.9723053  20.6079235  46.1551971 195.7836914  20.7215195
  45.5229149 196.6613922  20.8555431  46.1795502 195.6830597  19.2520008
  46.9303894 194.9707336  18.9100475  45.2478294 195.2937775  18.8415642
  46.5725288 197.3584442  18.5553284  45.3711433 197.5899353  18.0186977
  45.4004173 194.6314850  21.3634148  44.1860428 194.4841766  21.1806660
  46.0047035 193.8203430  22.1880684  46.9661102 194.0680084  22.3737144
  45.4377594 192.8322449  23.0258942  44.9669952 192.1641541  22.3046818
  46.5613976 192.0885773  23.6656628  47.0898018 192.7676392  24.3348141
  46.1020050 191.2654266  24.2129173  47.1261215 191.7371979  22.8021164
  44.3867340 193.3865051  24.0439949  43.5056610 192.5953064  24.3710442
  44.3059731 194.6867371  24.3581638  44.8708229 195.4063110  23.9300785
  43.1778450 195.3016663  25.1119480  43.1789551 194.7302246  26.0401497
  43.4634933 196.8417969  25.3596516  42.6075439 197.2289734  25.9124184
  44.3643532 196.9573212  25.9623184  43.5754242 197.5971832  24.1786976
  43.6394844 198.5276642  24.4060745  41.7792587 195.0298004  24.5509777
  40.8200455 195.1101532  25.3940964  41.5631828 194.8314362  23.2274933
  42.3914185 194.6437531  22.6807747  40.3372803 194.4188385  22.6010361
  39.5899734 194.9334717  23.2050056  40.3166924 194.7268524  21.1338196
  40.9967308 193.9821014  20.7203007  39.2999496 194.5957031  20.7634869
  40.7657051 196.1791534  20.7273464  41.8469925 196.0716248  20.8131027
  40.4410362 196.5021973  19.2675953  39.3533630 196.5529480  19.2176704
  40.9398422 197.4219055  18.9619579  40.7869492 195.6152191  18.7368374
  40.2024002 197.2712708  21.5835915  40.4443665 196.9972076  22.6104488
  40.7476273 198.1557312  21.2540874  39.1259003 197.4248047  21.5082378
  39.8893471 192.9773712  22.9037151  38.7460938 192.5766754  22.6410522
  40.7612648 192.1395569  23.5103493  41.7282410 192.4272156  23.5584583
  40.5138931 190.7569275  23.9677105  39.4691010 190.4695587  23.8496914
  41.3211212 189.7360229  23.1457767  40.8446655 188.7862854  23.3888454
  41.3829765 189.9647980  21.6202583  41.9176331 190.8406372  21.2526302
  41.8032837 189.0595398  21.1821213  40.3806686 189.9971924  21.1931381
  42.6699448 189.6955414  23.5710144  43.1281891 189.1182709  22.9558983
  40.7371216 190.5545044  25.4672794  41.2580719 191.3749542  26.1725159
  40.3786888 189.3266296  25.9150772  39.9565506 188.6552887  25.2896175
  40.4470520 188.9905548  27.3178368  40.0962372 189.8460999  27.8949566
  39.5412025 187.7362518  27.5345650  39.5817070 187.4286957  28.5794888
  38.5297852 188.0817261  27.3205643  39.8830986 186.6742554  26.5942326
  39.1150360 186.2446442  26.2106667  41.8000450 188.6287079  27.9724121
  41.8065872 188.2894135  29.1505661  42.8668213 188.7100830  27.2278385
  42.8180046 189.0937042  26.2948055  44.2920074 188.2460632  27.5658169
  44.2076187 187.7727051  28.5440292  44.7608833 187.1923523  26.5218258
  44.9328690 187.7128143  25.5796833  45.7598000 186.8131409  26.7373753
  43.8467178 185.9743042  26.3528805  42.9730797 185.7367249  25.3448467
  42.6906052 186.3441620  24.4977131  42.2480202 184.6325073  25.6384811
  41.4197502 184.3474274  25.1356888  42.6060219 184.0874481  26.8405037
  42.2050552 182.9550171  27.5286121  41.4661217 182.2946625  27.0992947
  42.8767548 182.5243530  28.6807919  42.6657944 181.5300140  29.0457077
  43.7554779 183.4174042  29.3204346  44.2516327 183.1936951  30.2532711
  44.1313858 184.6233673  28.6558208  44.7299080 185.3178253  29.2267094
  43.6287842 184.9457397  27.3522301  45.3675919 189.3525085  27.7001057
  45.2669754 190.4332275  27.0666103  46.3979416 189.0843353  28.5229511
  46.5376053 187.9509277  29.4471321  46.5654526 186.9723206  28.9679394
  45.7779427 187.9441223  30.2287769  47.8822441 188.1425171  30.0879459
  48.6395836 187.6117554  29.5110302  47.8927841 187.7835846  31.1171017
  48.1306305 189.6178589  30.0726891  49.1979904 189.8359070  30.1086388
  47.6674461 190.1275482  30.9175339  47.4546204 190.0560150  28.7908516
  46.9901276 191.0328979  28.9251862  48.4812164 190.2375793  27.6596489
  48.7604675 189.3252411  26.8837166  49.2436790 191.3917236  27.7118225
  48.9123802 192.6177368  28.4215431  49.4012642 192.7029419  29.3920250
  47.8400002 192.7908020  28.5118675  49.5274391 193.6960144  27.5521393
  49.6858444 194.5567322  28.2018909  48.8753853 194.0455017  26.7516499
  50.8228989 193.1126404  26.9955883  51.5743637 193.1768341  27.7825298
  51.0537338 193.7033234  26.1090698  50.2765808 191.6960907  26.7039719
  49.9683952 191.7024078  25.6584663  51.4783096 190.6627502  26.7425804
  52.0737381 190.2897339  25.7572174  51.7921829 190.1028290  27.9100742
  51.4185982 190.5343628  28.7433357  52.7840500 189.1034698  28.1418934
  53.6115150 189.3425293  27.4738750  53.2231598 189.1060638  29.6427269
  54.0111198 188.3648987  29.7765274  53.7797699 190.0259247  29.8219547
  52.2764816 188.9087982  30.7992554  51.8506699 189.9191284  31.6187000
  52.1104050 190.9539337  31.4509754  50.9233971 189.4347534  32.5439873
  50.3320122 190.0336761  33.1022606  50.7371559 188.0642242  32.3217392
  49.8950844 187.1562347  33.0071144  49.2317772 187.4949799  33.7892151
  49.9132805 185.8123779  32.5591812  49.2046738 185.1098328  32.9723549
  50.7952232 185.3921967  31.5305824  50.7917252 184.4071808  31.0876942
  51.6217041 186.3167114  30.8787746  52.1044579 185.9576721  29.9818687
  51.6314087 187.6776733  31.2692451  52.4111824 187.6550903  27.5903721
  53.3080902 186.8276367  27.5455303  51.1511192 187.3750458  27.2196331
  50.4499130 188.1008148  27.1787262  50.8190193 186.0217896  26.7317791
  51.3812141 185.3181000  27.3456612  49.3244247 185.7374420  26.9476643
  48.9825058 185.9965210  27.9497013  48.8375282 186.4024048  26.2343159
  48.9033318 184.2752380  26.7142982  49.2692375 184.0812836  25.7060337
  49.3956566 183.3391724  27.7736759  49.1457138 183.5324554  28.8168812
  48.8876266 182.4088898  27.5195522  50.4652405 183.1366272  27.8290195
  47.4153786 184.1299133  26.4431133  47.1485100 184.8919830  25.7108994
  47.2463150 183.1585999  25.9782677  46.8347321 184.2848358  27.3524837
  51.3430557 185.9185181  25.3018532  52.1560440 185.1029968  24.9855232
  50.9580498 186.8329620  24.3980579  50.4295998 187.5997925  24.7889729
  51.2457123 186.7359161  22.9420223  50.8406258 185.7834320  22.6002750
  50.4280434 187.7912903  22.2244949  50.6923256 188.7714386  22.6214390
  50.6506348 187.6947784  21.1618366  48.9322243 187.6083679  22.3261528
  48.2946434 186.3977203  21.8394756  48.8697624 185.6886139  21.2625809
  46.8953514 186.1936951  22.0813313  46.3703918 185.4055023  21.5621281
  46.1618996 187.2043304  22.7076244  44.7801819 187.1834259  22.7411995
  44.4339943 186.5296936  22.1293316  46.8283348 188.3505859  23.1862640
  46.1953773 189.0988159  23.6400318  48.1949654 188.5756989  22.9903660
  48.6424904 189.4740143  23.3892803  52.7482796 186.7331238  22.5518436
  53.0892563 186.0903320  21.5489960  53.6437035 187.2948761  23.3751297
  53.2248001 187.8705597  24.0915184  55.1317825 187.0078583  23.2196808
  55.5278740 187.4484863  22.3047657  55.8981476 187.7520447  24.2802048
  55.7448044 187.4128876  25.3046875  56.9291916 187.5082550  24.0240383
  55.7145424 189.1125488  24.1465225  56.0547180 189.5301971  24.9411640
  55.5548820 185.5133972  23.3321571  56.4402695 185.1216278  22.6666298
  54.7356491 184.7283630  24.0407276  53.9314880 185.2010651  24.4279861
  54.8500175 183.2248993  24.1748161  55.9157639 182.9962463  24.1739178
  54.1695595 182.8053894  25.5015411  53.0948372 182.7846527  25.3208714
  54.4279060 181.7686462  25.7172203  54.5372353 183.6027527  26.8162956
  54.1814499 184.6233826  26.6754055  53.7848663 183.1064301  28.0831337
  54.2432098 182.1350250  28.2685776  53.8556366 183.8557129  28.8715935
  52.7343063 182.8849335  27.8950996  56.0331917 183.6588440  27.1440277
  56.5244942 184.3608856  26.4703407  56.2562981 183.9989777  28.1552830
  56.5228462 182.7151489  26.9036312  54.2337532 182.4092865  23.0306549
  54.2101021 181.1833038  23.0442905  53.7841225 183.1362762  22.0332241
  53.7721367 184.1379089  22.1624775  53.3334160 182.5433350  20.7515621
  53.7243881 181.5299530  20.6604137  51.7415581 182.3352661  20.8332672
  51.1906395 183.1709137  21.2648544  51.3317223 182.0638885  19.8603897
  51.3219872 181.1532898  21.6678104  50.9956856 181.3777924  23.0193481
  51.1530647 182.3895569  23.3628006  50.4260979 180.3722687  23.8348351
  50.1466141 180.5358887  24.8651333  50.0939827 179.1004028  23.2821388
  49.4821510 178.0526276  23.9605560  49.3186111 178.1098785  24.9047890
  50.4333038 178.8292389  21.9285316  50.1891823 177.8949890  21.4448128
  51.0478745 179.8459778  21.1601276  51.1609421 179.6425934  20.1054935
  53.7670135 183.3144531  19.4714394  53.8066483 182.7850037  18.3693810
  54.4145088 184.4715881  19.6256104  54.3530083 184.9631042  20.5057926
  55.1452332 185.1384735  18.5613270  54.4810944 185.1877899  17.6984272
  55.3075485 186.6055450  18.9392643  54.3382835 187.0324554  18.6816483
  55.4518776 186.7304535  20.0124245  56.5286407 187.2046051  18.2460747
  56.4663239 187.3974762  17.0025368  57.4359398 187.7261200  18.9452991
  56.4088860 184.4057312  18.1369991  57.2656593 184.0282440  18.9733181
  56.5440407 184.1640778  16.8430347  55.8132896 184.3874359  16.1825619
  57.8055496 183.5941925  16.3013725  57.9857559 182.6053467  16.7230244
  57.6533279 183.4156342  14.8113108  57.4673576 184.3883057  14.3558693
  58.5403214 182.9641724  14.3668718  56.7566833 182.8128815  14.6670046
  59.0477219 184.3759918  16.5595875  60.0346451 183.7584381  16.9052906
  59.1388931 185.7145538  16.5295868  58.2680168 186.2055969  16.3861809
  60.4145813 186.4768829  16.6898327  61.1748619 185.9935608  16.0762653
  60.2173538 187.9413147  16.1078835  59.6267891 188.5253448  16.8137417
  61.2136421 188.3806458  16.1579456  59.6642570 188.0325775  14.6969309
  58.6560249 187.6459351  14.8455124  59.6822357 189.0896149  14.4315042
  60.4081688 187.1726837  13.6493111  61.6536598 187.0677338  13.6342382
  59.6789551 186.5878906  12.8209019  60.8763847 186.4525299  18.1354523
  62.0633812 186.3644867  18.4172497  59.9893723 186.5011902  19.1668606
  59.0055275 186.5220337  18.9394417  60.3821754 186.4555664  20.5638847
  61.2517319 187.0978699  20.7031803  59.1642570 186.7190857  21.4741364
  58.3209114 186.0926208  21.1835995  59.5113640 186.4918976  22.9486847
  60.2322159 187.2323914  23.2953129  58.7010536 186.5902100  23.6710682
  59.9084320 185.4980774  23.1554546  58.6184959 188.0708008  21.3223495
  57.9375038 187.9621124  20.6544895  60.8232079 184.9805298  20.8501701
  61.8230515 184.7184906  21.4723415  60.0304070 183.9763794  20.3631611
  59.3276825 184.1864929  19.6688042  60.4616394 182.4942322  20.5804996
  60.4751892 182.2694092  21.6469746  59.3709641 181.5469055  19.9963417
  59.1121063 181.9131165  19.0028648  59.7945671 180.5438232  20.0460167
  57.9730797 181.4011688  20.5854683  57.6931686 182.4091644  20.8915653
  56.8361473 180.9304047  19.6415710  57.1460075 180.0137482  19.1397533
  55.9778519 180.7125397  20.2771511  56.5218773 181.6595001  18.8947296
  58.0239830 180.5877075  21.9137459  58.6701889 181.0765533  22.6428261
  57.0670242 180.4507141  22.4172974  58.4450798 179.5908508  21.7832031
  61.8185806 182.0855865  20.0002518  62.5593491 181.3987579  20.7367630
  62.2200089 182.6064606  18.8446903  61.5263557 183.1775665  18.3833923
  63.5821342 182.4310150  18.3486633  63.8326836 181.3721161  18.2849598
  63.7788773 183.0629730  16.9911194  63.3533058 184.0664368  16.9980793
  64.8251419 183.2608032  16.7580986  63.1126709 182.1634064  15.9456587
  63.6042061 181.1910400  15.9136744  62.0807877 181.9223633  16.2010479
  63.0970917 182.9838409  14.3493090  64.7627792 182.7519226  13.8575125
  65.2762222 183.7109985  13.9258909  65.2317963 181.9592285  14.4404068
  64.7054749 182.4990845  12.7987919  64.6339951 183.0492554  19.2105846
  65.7138824 182.4780884  19.4797955  64.4627457 184.3426361  19.5563374
  63.6290703 184.8358612  19.2703190  65.5023804 184.9971924  20.3192310
  66.4427185 184.9189148  19.7735653  65.2139435 186.4998627  20.4546604
  64.9281311 186.8344727  19.4574432  64.4273300 186.5646973  21.2064190
  66.4107437 187.3532410  20.9958839  65.9762802 188.2713165  21.3914680
  66.9333344 186.7880859  21.7676315  67.4948654 187.5856781  19.8779545
  67.2866516 187.3091583  18.6883240  68.5290451 188.1848602  20.3040199
  65.7109375 184.3464508  21.7753010  66.8829575 184.1552887  22.1343307
  64.5985565 183.8669434  22.4643383  63.6518364 184.0541534  22.1663876
  64.8283997 182.9766083  23.6677380  65.2762756 183.6455841  24.4025650
  63.3956985 182.5071259  24.1968784  62.7580299 182.1959686  23.3694324
  63.4737968 181.7435913  24.9708424  62.5586433 183.6155853  24.8610306
  63.1804924 184.0782471  25.6274242  62.3370514 184.4228973  24.1629925
  61.2120323 183.2326660  25.5248280  60.6957512 184.1448669  25.8239021
  60.5688019 182.7807312  24.7697659  61.5236855 182.4057617  26.7251835
  62.3732643 182.5951691  27.2374725  60.6576996 181.7039795  27.4389706
  59.4088783 181.4549255  27.0700474  59.0835876 181.7500305  26.1605434
  58.8877792 180.8076172  27.6441135  61.1061325 181.2785034  28.5515499
  62.0897141 181.3347931  28.7740459  60.4523430 180.8928833  29.2178459
  65.7449875 181.7727356  23.4388046  66.7389908 181.5543213  24.1611443
  65.4990692 180.9786530  22.3523064  64.6762390 181.1255035  21.7853069
  66.3563232 179.8514557  21.9203396  66.5222702 179.1197357  22.7110043
  65.7391891 179.0740662  20.6648426  65.6292725 179.7510223  19.8176479
  66.6315918 177.8887787  20.3703308  66.9829559 177.4352570  21.2971306
  66.1518631 177.1328735  19.7485962  67.5455933 178.1693573  19.8468952
  64.3203735 178.5863190  20.9276199  63.7563171 179.4610138  21.2514210
  63.9446182 178.2070770  19.9773159  64.3195877 177.7652435  21.6445122
  67.8074799 180.2556763  21.7364101  68.7655411 179.6460724  22.2159863
  68.0769424 181.3566132  21.0040169  67.3165207 181.8706055  20.5825024
  69.4551926 181.9510040  20.8083820  69.9473877 181.1348877  20.2794228
  69.4399719 183.2318726  19.9579887  68.5903702 183.7917786  20.3488598
  70.3659592 183.7716217  20.1562691  69.1995392 183.1155548  18.4907799
  70.0442810 182.4802856  18.2244606  68.2289200 182.7097626  18.2055798
  69.3737106 184.4968262  17.9119148  69.0416870 185.2876740  18.5845394
  70.4084549 184.7841034  17.7251892  68.5174713 184.6039429  16.6751480
  68.9486389 183.9249878  15.9394646  67.4724350 184.3217468  16.8030987
  68.6198120 185.9579620  16.1474152  69.5755386 186.2159882  15.9471369
  68.2068787 185.9807434  15.2259674  68.3460922 186.6491089  16.8311443
  70.1776886 182.1748047  22.1563759  71.3029327 181.7542267  22.3462734
  69.5421600 182.8558350  23.1249199  68.6692047 183.3528442  23.0199280
  70.1553879 182.9841156  24.4757843  71.0910110 183.5330200  24.3689632
  69.1803589 183.8541107  25.3333893  68.8297272 184.6144867  24.6355362
  68.3784790 183.1849976  25.6454449  69.8889313 184.4981842  26.5223331
  70.0781250 183.6995239  27.2395687  70.6940842 185.0769653  26.0697384
  69.0064850 185.5340118  27.2996731  69.6459351 186.1014557  27.9758530
  68.5934830 186.2644196  26.6039391  67.8587341 184.8104248  27.9223785
  67.9970779 183.8873291  28.3082161  66.6144714 185.2886353  27.9789524
  66.3499298 186.5598297  27.6498737  67.1094742 187.1953888  27.4517555
  65.4306717 186.9456635  27.8117237  65.6707687 184.4907990  28.4199619
  65.9467621 183.5991821  28.8059082  64.7811127 184.9375916  28.5902023
  70.5650101 181.6981812  25.1845932  71.4011459 181.7701569  26.0779266
  70.2022171 180.4787140  24.7083073  69.5114059 180.5300446  23.9732971
  70.8278427 179.2019043  24.9312401  71.3464050 179.2984772  25.8851089
  69.7087784 178.2316284  25.1200581  69.0339584 178.5908051  25.8970432
  69.1098404 178.1018982  24.2186470  70.1572495 176.8593903  25.5769291
  69.2962646 176.1926422  25.5296421  70.7798615 176.5266876  24.7464085
  70.8918915 176.7799835  26.8892746  70.2446518 176.7561493  27.9429512
  72.1938705 176.6895905  26.8601131  72.7184372 176.7200928  27.7226696
  72.6489182 176.6464081  25.9594650  71.9181137 178.8652954  23.9196377
  73.0227585 178.5217438  24.2900677  71.6552124 178.8305359  22.5998249
  70.7726974 179.1663361  22.2413483  72.6916122 178.5770416  21.5737877
  72.8801956 177.5037231  21.5964909  72.1534424 178.8169861  20.1377487
  72.0574722 179.9026642  20.1509495  72.9053116 178.5509186  19.3947792
  70.8021774 178.1340942  19.7502155  69.9940033 178.4845581  20.3921795
  70.4790955 178.4923859  18.2653656  71.2360611 178.0911713  17.5914688
  69.5039520 178.0660248  18.0299816  70.4763641 179.5764313  18.1515446
  71.0407104 176.6387329  19.8367233  71.1893845 176.2621002  20.8487244
  70.1423264 176.1689758  19.4363174  71.8634872 176.3935547  19.1651325
  74.0834732 179.4294128  21.7025700  75.1549377 178.9038696  21.4203091
  74.0029144 180.7080536  22.1517887  73.0741043 181.0785675  22.2936993
  75.1264877 181.5215454  22.4805908  75.7409286 181.4747314  21.5814915
  74.7056961 182.9941254  22.5835514  73.7604141 182.9722443  23.1258278
  75.4016266 183.5409851  23.2197380  74.6378860 183.7256470  21.2729340
  75.8017273 184.0279083  20.5063190  75.3203201 184.8353119  19.5096207
  75.9365463 185.3544922  18.7905159  74.0343475 185.1645966  19.6864071
  73.4543381 185.6984406  19.0549812  73.5522385 184.3830109  20.7309704
  72.5822830 184.5165100  21.1867847  75.9544830 181.1835327  23.6941376
  77.1613846 181.4110718  23.6097336  75.3335419 180.6203308  24.7362766
  74.3309631 180.5348053  24.8236446  76.0068741 179.9134521  25.7859154
  76.7514877 180.6226044  26.1475296  75.0611649 179.5588379  26.9150410
  74.2034760 179.0781250  26.4445171  75.5149384 178.8811035  27.6381416
  74.4653549 180.7278290  27.7162056  74.1000214 181.4564056  26.9924603
  73.5416260 180.3849335  28.1823158  75.5064468 181.1958771  28.8335686
  76.4168167 182.0100098  28.5465832  75.3352127 180.6843719  29.9608707
  76.7129440 178.6908569  25.1526909  77.8430634 178.3632507  25.5441418
  76.0956726 177.9535217  24.2238503  75.2252350 178.3173370  23.8631878
  76.6100388 176.7067719  23.6409035  77.1467667 176.2699280  24.4830341
  75.4847946 175.7690735  23.0751171  74.8683548 176.4229279  22.4582100
  75.9120712 175.0560150  22.3700733  74.6311111 175.0406647  24.0850029
  74.9289703 174.7456818  25.3241940  75.8407974 175.0379486  25.8237438
  73.9539413 173.9263153  25.8616943  74.1382828 173.5850067  26.7942352
  72.9920731 173.5127258  24.9436131  71.8632126 172.6739807  24.9980335
  71.7387695 172.0940399  25.9005756  71.0592194 172.6047363  23.8302307
  70.1878128 171.9677887  23.7933407  71.4964676 173.2348328  22.6255054
  70.9592819 173.1273499  21.6947651  72.6665573 174.0040283  22.6748409
  72.9924850 174.3973083  21.7232647  73.3649139 174.3179932  23.9081688
  77.6323776 176.9424591  22.5341492  78.2013550 175.9597015  22.1395245
  77.8266678 178.2128601  22.0750542  77.1916122 178.9114075  22.4339981
  78.6860123 178.5388489  20.9404373  79.5262833 177.8482056  21.0114937
  77.9160843 178.3245697  19.6351109  77.4114685 177.3644714  19.7431755
  77.1716309 179.1166382  19.5542793  78.8443756 178.3256683  18.3673172
  80.0719681 178.5506287  18.4757824  78.3698425 178.1041718  17.2147388
  79.3087921 179.9566498  20.9872437  78.8294678 180.9457703  20.4283714
  80.3859100 179.9732361  21.7397175  80.6001816 179.0772400  22.1537018
  80.9546661 181.2475739  22.2893505  80.2183304 181.8999481  22.7587242
  81.9190750 180.8072357  23.4496117  82.6923676 180.0999146  23.1499004
  82.3889771 181.7419586  23.7555542  81.1937408 180.2726593  24.6737747
  81.7598114 180.6819305  25.5105267  80.1679764 180.6297760  24.7652073
  81.1165543 178.7391815  24.8314438  80.7548981 178.0105591  23.8667145
  81.4697495 178.3047333  25.9002399  81.6620941 182.1245880  21.2216988
  81.9473038 183.2795563  21.5409756  81.8912506 181.7123413  20.0175648
  81.4789581 180.8254852  19.7653580  82.5353928 182.5199738  18.9624233
  82.9564667 183.4439087  19.3588219  83.7600250 181.8088531  18.3287773
  83.4855042 180.7645721  18.1797428  84.0177002 182.1452332  17.3245068
  85.0202866 181.8512726  19.3011227  85.2220917 180.9393311  20.0740108
  85.8709183 182.8741913  19.1219101  86.7954330 182.8843231  19.5284309
  85.7173920 183.5474548  18.3848419  81.5233459 182.9913330  17.8332996
  81.8083038 183.7815857  16.9256668  80.3136597 182.4488831  17.8324966
  80.0787964 181.7397308  18.5122337  79.2941666 182.6777649  16.8122730
  79.7255478 182.3860779  15.8547068  78.1251373 181.7294922  17.1643486
  78.4707260 180.7122498  16.9802704  77.8098526 181.9684906  18.1800137
  76.8813782 181.8123474  16.2166615  77.1618271 182.1423950  15.2164059
  76.1822205 180.4943848  16.0722065  76.0669785 180.0431671  17.0577164
  75.2234497 180.6588898  15.5804863  76.7891769 179.7915344  15.5014877
  75.9056396 182.8145294  16.8706112  76.4074554 183.7370911  17.1624165
  75.0599976 182.9559326  16.1975632  75.5306015 182.3886261  17.8012352
  78.9369202 184.1655731  16.7037010  78.7624969 184.8347321  17.7401829
  78.6344910 184.5468292  15.4400215  78.9011230 183.9478912  14.6717291
  77.7527618 185.6528778  15.0518847  77.3778992 186.2568970  15.8781633
  78.5249176 186.4831696  13.9939623  78.8801651 185.7864838  13.2346706
  77.8153152 187.1764374  13.5423651  79.7376633 187.2767487  14.5259781
  79.3211288 188.2660370  14.7154503  80.0581894 186.8890076  15.4929457
  80.9714432 187.2977295  13.6022263  81.8429260 187.6612854  14.1466990
  81.2274628 186.2634583  13.3723640  80.8253555 187.9847717  12.2620153
  81.4713516 187.5564117  11.4956617  79.8188858 187.7818604  11.8960285
  81.0636215 189.3776855  12.3807640  82.0557175 189.4841003  12.5373907
  80.7379761 189.9864502  11.6435709  80.7127380 189.6905518  13.2746830
  76.5232773 185.1481323  14.3641129  76.5158844 184.0322113  13.8629055
  75.4733353 185.9728699  14.3504553  75.4656830 186.8063049  14.9209166
  74.1499100 185.5461273  13.8916101  73.8942642 184.6865082  14.5111237
  73.0807724 186.5195923  14.2874680  73.3674088 187.5299225  13.9956036
  72.2136383 186.1515808  13.7390633  72.6677704 186.5924225  15.7498741
  73.5245514 186.4454651  16.6278191  71.4235153 186.6863708  16.0531521
  74.0862350 185.2500153  12.3566875  73.1109695 184.6732330  11.8508949
  75.1366348 185.6527863  11.5998468  75.8487015 186.0595703  12.1894169
  75.3075638 185.6461029  10.1519613  74.4524994 186.2224121   9.7986345
  76.6169968 186.3159180   9.8639078  77.3574524 185.6903381  10.3623714
  76.7309952 186.3970795   8.7829256  76.9074860 187.7387390  10.4132652
  76.8452759 187.8970947  11.4899063  77.9090881 187.9766693  10.0550995
  75.8973770 188.7431335   9.7882061  75.5881348 188.6277771   8.5968838
  75.3984375 189.6879425  10.4717665  75.2416306 184.2318420   9.4701281
  75.2116470 184.0102386   8.2811604  75.1873474 183.1713867  10.2815514
  75.3249588 183.3964691  11.2564888  75.1890411 181.7006531   9.8788109
  75.1969223 181.5090332   8.8058147  76.4633636 181.0737457  10.3948355
  76.8092957 180.2064819   9.8324413  77.2977676 181.7615662  10.2578173
  76.2800293 180.7406006  11.7735596  76.2960968 181.5598145  12.2737961
  73.8091431 180.9868927  10.2629032  73.6475143 179.8140411   9.8967590
  72.9121857 181.6465912  10.9034557  73.0707626 182.6407013  10.9852600
  71.5584106 181.1781464  11.1939316  71.4812851 180.0910034  11.1770754
  71.1956406 181.5727844  12.6571808  71.2400360 182.6618500  12.6654444
  70.2691040 181.1221771  13.0129728  72.2749634 181.0417786  13.6863136
  73.2510529 181.3324890  13.2979307  72.1885147 181.5478668  15.1471167
  71.2283020 181.2453003  15.5649023  72.9454193 181.1642151  15.8312273
  72.3156281 182.6299438  15.1796503  72.1830673 179.4952698  13.7245865
  72.5718384 179.1354523  12.7719650  72.8623047 179.0577087  14.4562101
  71.1311417 179.2113495  13.7552853  70.4916153 181.7406464  10.2412558
  70.5922241 182.8825989   9.8019495  69.4295197 180.9690399  10.0019827
  69.4501266 179.5339355   9.9892025  69.0517426 179.0927887  10.9028664
  70.4560547 179.1794281   9.7644110  68.4660339 179.1685486   8.8498621
  68.0927734 178.1507721   8.9634657  69.0544891 179.3039703   7.9424047
  67.3651505 180.2649841   9.0157127  66.6967239 180.0077515   9.8373823
  66.8786163 180.2729797   8.0403519  68.2678528 181.4831848   9.2896738
  68.6308823 181.9345245   8.3663120  67.4818192 182.4823151  10.0852032
  67.2707367 182.2854004  11.2595234  67.1697617 183.6054382   9.5139284
  67.5185013 183.7924194   8.5846691  66.2357559 184.5686340  10.0632706
  66.3696442 184.5926971  11.1447487  66.4300003 186.0199738   9.5871506
  65.6992645 186.7089844  10.0107079  67.8026733 186.4591064  10.0803661
  68.5139008 186.1399994   9.3185081  67.8601151 187.5430603  10.1795559
  67.9335403 186.0108337  11.0652657  66.3958130 186.1917114   8.1531134
  66.1843643 187.0915985   7.8940725  64.7283478 184.2132416   9.8800945
  63.8324432 184.8981628  10.3747816  64.3807907 183.0326080   9.2916555
  65.0879364 182.4373169   8.8846264  63.0020065 182.5643311   9.1199474
  62.3327217 183.4243469   9.1434011  62.9974823 181.8977356   7.7792826
  63.4813576 182.4628448   6.9826446  63.5194855 180.9524841   7.9279599
  61.6656914 181.7612000   7.1811576  60.8166847 182.5993500   7.3506808
  61.3945656 180.6141357   6.6011391  60.4811668 180.6027527   6.1702366
  62.1615944 180.0293579   6.3014588  62.6723289 181.5962067  10.2576170
  63.5573158 180.7980652  10.5296354  61.5086861 181.5766296  10.9216347
  60.4053688 182.5202942  10.7707539  60.0618858 182.7369843   9.7592373
  60.6965103 183.4948273  11.1626987  59.3025818 181.9834442  11.6556549
  58.6346703 181.3577423  11.0636272  58.7911797 182.7721405  12.2075005
  59.9592552 181.0554047  12.6843824  59.2433090 180.2900238  12.9839125
  60.2294884 181.5295105  13.6279373  61.2574883 180.5709229  11.9849186
  61.9934082 180.6630859  12.7836847  61.1357841 179.1334229  11.5581656
  61.6541481 178.2713623  12.2807693  60.6758041 178.8394928  10.3387194
  60.2670021 179.5980225   9.8118200  60.6442871 177.5054779   9.7570658
  59.9855537 176.8895721  10.3693056  60.1022415 177.4753571   8.3124084
  60.6592636 178.2252197   7.7506700  60.3461990 176.1819763   7.5832629
  59.9822121 175.3609161   8.2009058  59.8009262 176.0742950   6.6456175
  61.4231834 176.0889435   7.4433985  58.6258850 177.7629700   8.2807703
  58.1487579 177.2791443   7.4285064  58.1189003 177.4025116   9.1758337
  58.2457047 179.2462921   8.1530647  58.7745705 179.6008148   7.2683516
  57.1769791 179.2445221   7.9387617  58.5928192 179.8353577   9.0019569
  62.0041885 176.9238129   9.7974977  62.2393456 175.9203949  10.4865913
  62.9456139 177.5099030   9.0568295  62.6570930 178.3118286   8.5148287
  64.2553101 176.8993988   8.8864174  64.1173096 175.8533325   8.6129417
  65.0591965 177.6089935   7.7644844  65.1860046 178.6123352   8.1710920
  66.0528488 177.2025909   7.5758290  64.3526077 177.8971405   6.3946624
  63.5198326 178.8075562   6.2555046  64.6378174 177.1697540   5.3964162
  65.1704788 176.9639130  10.1060228  65.9727325 176.0730133  10.3855000
  65.0126114 177.9500275  10.9973698  64.4690628 178.7482758  10.7016306
  65.6142502 177.9873505  12.2870455  66.6826477 177.8250580  12.1445675
  65.3428955 179.3213959  12.9343815  65.6485443 180.0644226  12.1977758
  64.2724457 179.5131378  13.0083590  66.0141678 179.5194397  14.2781324
  65.4627838 178.8392792  15.3616676  64.5320053 178.2953491  15.2968121
  66.0142365 179.0327911  16.6470833  65.6448822 178.5256195  17.5261536
  67.1275635 179.8755493  16.8582077  67.5594101 180.0629730  17.8302078
  67.7439423 180.4880981  15.7137671  68.6645966 181.0068665  15.9366655
  67.2149124 180.2532654  14.4587193  67.6878967 180.6130524  13.5569210
  65.1219254 176.8177795  13.2184458  65.9281464 176.1620483  13.8140383
  63.7828751 176.5580292  13.3620577  63.1235466 177.0887299  12.8109312
  63.3460159 175.5389099  14.2488842  63.8415642 175.5457153  15.2197018
  61.8593407 175.7641602  14.6475916  61.5191650 175.0359802  15.3838911
  61.7438545 176.7676849  15.0571260  60.9984245 175.6419373  13.4967852
  60.9236298 176.4848633  13.0434647  63.7264328 174.1713867  13.6267529
  64.1150970 173.1867981  14.3090563  63.7403793 174.1077881  12.2449598
  63.2872200 174.8465271  11.7263107  64.1607590 172.8508759  11.5557976
  63.5550766 172.0812073  12.0341911  63.7148323 172.8756256  10.1279030
  63.8575287 173.9049377   9.7988634  64.3896255 172.2470093   9.5468740
  62.3765221 172.3495483   9.7649946  61.8469620 171.1658173  10.2119036
  62.4680862 170.5591736  10.8542423  60.5702095 170.7212830   9.8251152
  60.2135963 169.7696228  10.1905956  59.9087868 171.4888000   8.8382931
  58.5915604 171.2316437   8.5342026  58.3805084 171.7327118   7.7430091
  60.4353523 172.6797028   8.3081264  59.9332733 173.1864624   7.4972544
  61.7062874 173.0720215   8.7805672  62.1916580 173.9197693   8.3199902
  65.6568527 172.5323944  11.7973232  65.9777527 171.4526825  12.2568321
  66.5555649 173.5308228  11.8304949  66.2068481 174.4183960  11.4977703
  67.8942184 173.4806366  12.3914175  68.5296936 172.7367096  11.9109554
  68.5855942 174.8489380  12.1673012  68.6709595 175.1521149  11.1237984
  67.9224014 175.5847473  12.6221075  69.9848328 174.9353485  12.7956381
  70.2258224 175.9970093  12.7418442  69.9842529 174.6058044  13.8346252
  71.1351624 174.2076416  12.1467648  72.0116196 174.6752625  12.5953751
  71.1571198 173.1425781  12.3775959  71.1481781 174.4361115  10.6699448
  70.4520035 173.9235229  10.1477470  71.8484650 175.3842621  10.0009727
  72.6800842 176.2873383  10.5774364  72.7901611 176.3032837  11.5812941
  73.3395081 176.7453461   9.9646635  71.6681671 175.5368652   8.7264166
  71.1679764 174.8547058   8.1745281  72.2678680 176.2016449   8.2589560
  67.9119873 173.0079803  13.8211927  68.5830612 172.0336151  14.1156654
  67.2392807 173.6658630  14.7504330  66.5411682 174.3071136  14.4018183
  67.3312988 173.2827148  16.2173634  68.3768692 173.2616272  16.5246830
  66.6361389 174.2507782  17.1016579  65.6081848 174.4763489  16.8178558
  66.6004791 173.7813416  18.5782700  67.6445847 173.6183319  18.8454380
  66.1645355 174.5914459  19.1628914  66.1263809 172.8161011  18.7561436
  67.3225555 175.5946960  17.0596752  66.9832306 176.0723267  16.1405277
  67.1391449 176.1896515  17.9543724  68.4064865 175.5113220  16.9806023
  66.7472992 171.8464661  16.4547520  67.2860947 171.0653229  17.2967529
  65.6186371 171.4801788  15.7579136  65.2336731 172.2020569  15.1656256
  64.8857193 170.2728882  15.9187813  64.4225006 170.2070923  16.9032631
  63.6358528 170.2429657  15.0343180  63.8860970 170.3982391  13.9848566
  63.0732803 169.3097687  15.0618620  63.0438843 171.1034851  15.3460846
  65.8551331 169.1169739  15.5983639  65.7765961 168.0428162  16.2268982
  66.7806091 169.2497101  14.6387310  66.7750626 170.1742859  14.2322369
  67.8213196 168.3248749  14.2504025  67.3287048 167.3918762  13.9766092
  68.5286484 168.9514008  12.9851322  68.9891968 169.9260406  13.1466064
  69.2686844 168.2303925  12.6378536  67.7933731 169.0661163  12.1886969
  68.7206955 168.1194153  15.4286242  68.9411392 167.0425720  15.9368334
  69.3924561 169.1568298  15.9524097  69.0845642 170.0809479  15.6854153
  70.6541367 169.0598297  16.8399887  71.3059464 168.2524261  16.5063019
  71.4953766 170.3262787  16.6200829  72.4772491 170.3503723  17.0927811
  71.6609192 170.4683685  15.5521393  70.6033020 171.7892303  17.1943798
  71.2914047 172.6605225  16.4512272  70.3682556 168.8687439  18.3025150
  71.3146667 168.7245636  19.1148739  69.0834351 168.7948761  18.7348022
  68.3771896 168.8308258  18.0136719  68.6752701 168.5869141  20.1021404
  69.3599319 169.2295685  20.6556187  67.2207184 168.9847260  20.3858204
  66.6742401 168.6762238  19.4945927  66.7765808 168.4362488  21.2164860
  67.0247192 170.4832916  20.7044277  67.5533752 171.0463257  19.9352703
  65.5384140 170.7325897  20.7217712  65.0355148 170.1399536  21.4859638
  65.4871979 171.7631683  21.0730438  65.1763611 170.6355743  19.6982441
  67.6363983 170.8355103  22.0745316  68.7219086 170.7639771  22.0062771
  67.3756561 171.8570099  22.3513908  67.1830215 170.1955872  22.8315353
  68.9566498 167.0767212  20.5239849  68.4790573 166.1088257  19.8412857
  69.6672821 166.7494965  21.6365776  70.4824600 167.6918640  22.4713383
  69.9725723 168.5135498  22.9742870  71.1565933 168.2009888  21.7825394
  71.2919388 166.8179779  23.4654331  70.7004166 166.7718506  24.3798027
  72.2695007 167.2434998  23.6922359  71.2637939 165.4032898  22.8554401
  71.3953781 164.6294098  23.6116772  72.0527191 165.3475037  22.1053734
  69.9463196 165.3680420  22.0567684  70.0743790 164.7116547  21.1960278
  68.9206924 164.7211151  22.9164352  68.8601913 164.8234863  24.1174583
  67.9011841 164.1074524  22.2868519  67.8670731 164.0821381  21.2777462
  66.6666489 163.5196533  22.9124393  66.8436203 163.3052216  23.9663887
  65.4999542 164.5037079  22.7863827  64.5232086 164.0200806  22.7999401
  65.4017334 165.5011444  24.0627060  66.2681580 166.1623383  24.0774136
  64.3956223 165.9204559  24.0650482  65.6347733 164.9056244  24.9454079
  65.5436554 165.4426880  21.5236454  66.4176865 166.0767822  21.6722507
  65.7663269 164.7982788  20.6731949  64.2664108 166.2413177  21.2676697
  64.2186203 167.0669708  21.9776802  64.4964294 166.7119904  20.3118095
  63.3889580 165.6106720  21.1246700  66.2970123 162.1757507  22.2824917
  66.8460236 161.8317871  21.2210426  65.5182114 161.3391876  22.9487610
  65.1249008 161.6181030  23.8362350  65.0876160 160.0228577  22.3046284
  65.9527283 159.5140228  21.8794441  64.5973358 159.1486816  23.5049858
  64.4457703 158.1158905  23.1911373  65.3620605 159.0881500  24.2793503
  63.2588768 159.6217041  24.0857105  63.1685486 160.8398132  24.4586678
  62.3603516 158.7419128  24.2498627  64.0284119 160.0541077  21.2490845
  63.4766235 161.0829926  20.9169178  63.9532852 158.9431305  20.5500717
  64.4004288 158.0930176  20.8622589  63.2973137 158.9265442  19.2059669
  63.5985527 159.8074036  18.6389980  63.5662842 157.7265625  18.2632256
  63.2848969 156.8135681  18.7879925  63.1300583 157.7708435  17.2653046
  65.0689697 157.5663300  18.0583858  65.6748123 158.4871674  17.4708557
  65.7601776 156.5570984  18.4145107  61.7456512 158.9976196  19.3320446
  61.0737495 159.4763947  18.4284878  61.1933289 158.5341339  20.4692879
  61.8105392 158.1367188  21.1629848  59.7424164 158.6512451  20.7468128
  59.2629051 158.3465729  19.8165722  59.3292770 157.7150269  21.9489079
  59.7418938 158.0276642  22.9081326  58.2512779 157.8032990  22.0839386
  59.4993820 156.6562500  21.7536201  59.3337708 160.0936737  20.9279842
  58.2174759 160.4455414  20.4467220  60.1895256 160.9822083  21.4591980
  61.0957069 160.6328125  21.7364101  60.1256828 162.4453888  21.5317631
  59.0884171 162.7140350  21.7317791  60.9785767 162.9592133  22.6678581
  60.6165581 162.5055084  23.5904579  62.0222816 162.6798096  22.5239563
  60.9521103 164.4578094  22.9319439  61.5261078 164.9375153  22.1391563
  59.5570030 165.0312195  23.0467949  58.9726677 164.5048981  23.8015385
  59.6885300 166.0762177  23.3274593  59.0640640 165.0161896  22.0747433
  61.7475777 164.6570892  24.2199802  62.7160721 164.1569824  24.2171707
  61.9443665 165.7261200  24.3008881  61.1563377 164.3743134  25.0909367
  60.5152245 163.1061707  20.1831760  59.7870178 164.0866241  19.8251934
  61.5014191 162.7144012  19.4385624  62.0412865 161.9852448  19.8823910
  61.7739754 163.3375702  18.1039829  61.6993752 164.4249725  18.1126232
  63.1513596 162.9213867  17.5457020  63.1850014 161.8352509  17.6310749
  63.2798157 163.1937561  16.4981270  64.2911911 163.6272125  18.3710976
  64.4154053 164.6865997  18.1466732  64.0329971 163.5413208  19.4265881
  65.5766754 162.9158325  18.1337452  66.2623825 163.1577911  18.9457626
  65.3508835 161.8555298  18.2471123  66.2846527 163.1864929  16.8083858
  66.2970886 162.3866730  16.1917610  67.0561981 164.2129211  16.5063534
  67.2400589 165.1978912  17.3049259  66.8799286 165.1744843  18.2482510
  67.8488312 165.9447174  17.0019989  67.7201157 164.2613983  15.4051733
  67.6008530 163.5368958  14.7116442  68.2826080 165.0598450  15.1479321
  60.6456795 162.9438477  17.1011429  60.4850311 163.6741943  16.1245785
  59.7332153 161.9508667  17.3939915  60.0219803 161.2935028  18.1043434
  58.4472427 161.6742554  16.6667595  58.6695328 161.8175354  15.6093254
  58.0112000 160.1996765  16.8980255  58.0186768 160.0090332  17.9712009
  56.5435295 159.9757080  16.4554043  56.3322334 160.3405914  15.4502583
  56.3771858 158.8990326  16.4210224  55.8771858 160.4276581  17.1901360
  58.9343109 159.1999969  16.1230774  58.5692978 159.0930634  15.1015930
  59.9716568 159.5247650  16.0422115  58.8809166 157.7518921  16.6925945
  57.8572159 157.3775482  16.6941967  59.3967247 157.1163177  15.9728098
  59.4280434 157.6931610  17.6334991  57.4389229 162.7398071  17.0390167
  56.8442078 163.2730713  16.1078358  57.3581390 163.0828705  18.3651867
  58.0240974 162.6313171  18.9756756  56.4421883 164.0850220  18.9543648
  55.4745712 163.7256622  18.6041050  56.4561501 164.2233734  20.4949398
  57.4126701 164.5915070  20.8659515  55.7467575 164.9959259  20.7916584
  56.0187302 163.0110474  21.2979584  56.9050217 162.3801880  21.3656712
  55.7231712 163.3467712  22.2919617  54.8972054 162.0862732  20.7145729
  53.8915138 162.4935455  20.1506901  55.0148163 160.7968903  21.0252361
  54.2831612 160.1396942  20.7952785  55.9090614 160.4353027  21.3247089
  56.7786522 165.4743652  18.3220177  55.9985886 166.1407318  17.7345314
  58.0816193 165.9442902  18.3683147  58.7342529 165.4749603  18.9797955
  58.5685310 167.0650177  17.6889400  58.0349998 167.9281006  18.0871048
  60.0157967 167.2488403  17.9946861  60.2741432 166.9783630  19.0185032
  60.6169930 166.6539917  17.3070698  60.6029701 168.6602173  17.7975006
  60.4333611 168.9273376  16.7544365  59.8753624 169.6514587  18.6918640
  60.0216103 169.3437347  19.7272434  60.2300835 170.6639557  18.4991760
  58.8264236 169.7782135  18.4239655  62.0834427 168.6394196  18.1394939
  62.7200241 168.1404572  17.4087982  62.4240685 169.6566010  18.3328896
  62.2969780 168.2017517  19.1146584  58.4010468 167.0452576  16.1839771
  58.0779457 168.0337677  15.5499210  58.7708817 165.9491272  15.4627028
  59.0347099 165.1214752  15.9779558  58.4586334 165.8013611  14.0236931
  58.9537239 166.6591339  13.5684690  59.0676270 164.5086517  13.5130548
  60.1204643 164.4705200  13.7926321  58.5685349 163.6747284  14.0066032
  58.9842300 164.1961212  12.0080023  58.0145340 164.3993683  11.5535975
  59.9598846 165.1076050  11.2754974  60.9825211 164.9422455  11.6145725
  59.9815178 164.9525757  10.1967945  59.6301918 166.1445923  11.3391571
  59.3570099 162.7433624  11.6216011  58.5870895 162.1349792  12.0961409
  59.3334846 162.5701141  10.5457125  60.3184738 162.5530090  12.0985260
  56.9846535 165.9000549  13.6617432  56.6555138 166.6027985  12.6903753
  56.0539780 165.3187561  14.4475164  56.3891296 164.7933655  15.2423353
  54.5566826 165.3545685  14.3294973  54.2165260 164.8716583  13.4134178
  54.0442314 164.5275879  15.4795198  54.7673531 164.4467010  16.2910938
  53.2226448 165.0268860  15.9931288  53.5446587 163.1058960  15.1786385
  52.7493935 163.1402588  14.4340067  54.3505745 162.5848236  14.6618366
  52.9909935 162.3881378  16.4463978  53.8368034 162.2908936  17.1270218
  52.2449989 162.9707031  16.9869595  52.2958603 161.1357574  15.9449053
  51.6325226 161.4478912  15.1382751  53.0498848 160.5499878  15.4191456
  51.5951614 160.3331451  16.9626617  50.7382088 160.8194885  17.1844864
  51.3510170 159.4523315  16.5329494  52.0434036 160.2609711  17.8648643
  53.9331551 166.7527008  14.3967009  52.8204498 166.9656219  13.9617682
  54.5762672 167.6840973  15.1323557  55.4688377 167.4323120  15.5323963
  54.1086349 169.0787659  15.2581539  53.1462212 169.1441956  15.7656746
  55.1827774 169.7350922  16.1887684  56.1706810 169.3763428  15.8998785
  55.3689880 171.2727661  16.0549850  54.5115433 171.8700409  16.3650780
  56.2175980 171.5612335  16.6752644  55.5781174 171.5397186  15.0190783
  54.8453178 169.3771057  17.6727409  54.6389046 168.3068390  17.6672535
  55.6730118 169.6658783  18.3205299  53.5382919 170.0396118  18.2070141
  52.6804008 170.0105438  17.5352478  53.1963501 169.4991302  19.0896626
  53.7223892 171.0560913  18.5548363  53.9844818 169.8281403  13.9135275
  54.5613441 169.4325714  12.8872089  52.9604454 170.6895294  13.8433151
  52.4560585 170.8954163  14.6937895  52.3439331 171.2135315  12.6539564
  52.5132561 170.5092163  11.8394918  51.3006897 171.3721008  12.9271011
  52.9645691 172.4828186  12.2655115  53.1137810 172.8623047  11.1294479
  53.4623070 173.2662048  13.3035774  53.3230057 172.9157715  14.2405396
  53.9803886 174.6179962  13.0936451  54.0782127 174.7250671  12.0133371
  52.8538170 175.5566254  13.6100607  51.9059982 175.3113556  13.1309185
  52.6497612 175.3748016  14.6652384  52.9786797 176.9621582  13.3844547
  52.4313965 177.2378082  12.6454649  55.3720436 174.9294128  13.7707424
  55.6268158 174.4403687  14.8612003  56.1192818 175.8693390  13.2142277
  55.8129578 176.3044586  12.3557758  57.3651390 176.3737793  13.8357992
  57.9863625 175.4789581  13.8742666  57.9763794 177.4223633  12.8862801
  57.1667633 178.0759583  12.5615902  58.7346649 177.9449463  13.4693832
  58.3736992 176.9507599  11.9874849  57.1398506 177.0762024  15.2470560
  57.9975357 176.9469757  16.0812225  56.0134926 177.7736206  15.3761377
  55.3567848 177.7113647  14.6113110  55.5873299 178.3292542  16.6659184
  56.3510857 178.9574127  17.1243858  54.2565269 179.1040955  16.4900665
  53.6134949 178.4144287  15.9432926  53.5513382 179.2983551  17.8853550
  54.1202774 179.9946136  18.5014954  52.5860214 179.7702637  17.7021389
  53.3709946 178.3686371  18.4249992  54.5668945 180.4002991  15.6935120
  54.7428856 181.1830750  16.4313316  55.4875069 180.2370148  15.1332254
  53.4440880 180.8094025  14.7866497  52.5299149 180.9618988  15.3603506
  53.7753372 181.7322998  14.3105850  53.3260040 179.9660797  14.1062441
  55.3656006 177.2503204  17.7192745  55.8082542 177.3914032  18.8352642
  54.6700859 176.1713257  17.3960056  54.2939873 176.1167755  16.4602318
  54.4867744 175.0417175  18.2670879  54.0277634 175.3079071  19.2192192
  53.5393066 174.1371765  17.5037251  53.8619728 174.2612610  16.4699974
  53.6129684 173.0933228  17.8087521  51.9797020 174.4841614  17.5474567
  51.6540833 174.2982330  18.5709343  51.8289909 175.5452271  17.3486652
  51.1965637 173.6394653  16.5582466  51.7915077 172.9558868  15.7148952
  49.8830490 173.5975494  16.6584988  49.3244133 173.0890808  15.9880657
  49.4956131 174.3137054  17.2560959  55.7833900 174.2311249  18.4416180
  56.0121460 173.7484894  19.4972553  56.6430817 174.0428925  17.4247627
  56.4918785 174.4848480  16.5292683  57.9611702 173.4622803  17.5491848
  57.7925606 172.4549561  17.9299202  58.4865303 173.2249298  16.0886307
  57.6200180 173.2005157  15.4278240  59.1020775 174.0696411  15.7793388
  59.3464127 171.9034882  15.8768797  60.3338966 172.1370850  16.2748756
  58.8414459 171.1205902  16.4427299  59.3803024 171.4254761  14.4233294
  60.0754471 170.5863190  14.3968964  58.3940544 171.0523224  14.1473322
  59.8768539 172.4851685  13.5277033  60.6568260 173.0524750  13.8275394
  59.2668114 172.8387909  12.3982916  58.2889824 172.1307831  11.8241501
  58.0843773 171.1824493  12.1050282  57.8960953 172.4920807  10.9667053
  59.6959267 173.9113922  11.8612156  60.4058647 174.4909821  12.2856617
  59.2197380 174.1573334  11.0051460  58.8838043 174.1838531  18.4419899
  59.5048866 173.6061554  19.3085938  59.0024757 175.5375519  18.3061905
  58.5067558 175.9299774  17.5185547  59.6648560 176.4842072  19.1873589
  60.7019386 176.1565399  19.2594147  59.5206299 177.8485260  18.4898453
  58.4964104 177.9038544  18.1210403  59.6669731 178.6697388  19.1914730
  60.3776283 178.2233276  17.2274189  60.2662239 177.4790955  16.4388733
  59.9369202 179.6268158  16.7722492  60.3981400 180.3954926  17.3923435
  60.0525665 179.7011261  15.6909494  58.8546295 179.7492065  16.8143196
  61.8984566 178.3630524  17.5071831  62.3055611 177.3558502  17.5960999
  62.3622894 178.8509979  16.6499386  62.1169281 178.9355011  18.4086609
  59.1421051 176.4175415  20.6222553  59.9915886 176.4036255  21.5455971
  57.7972946 176.2303772  20.8295155  57.1731415 176.2909241  20.0377693
  57.2090912 176.0374146  22.2048454  57.5878105 176.7769775  22.9103336
  55.6798172 176.1490784  22.0765991  55.3849258 175.6596680  21.1483688
  55.1534729 175.6357422  22.8813057  55.2913589 177.5936279  22.0228577
  55.7061882 178.0312195  22.9308949  55.6506271 178.1359100  21.1482410
  53.7749367 177.7842102  22.1432400  53.5295982 178.8446350  22.2016182
  53.3797646 177.4295959  21.1912956  53.1535339 177.0763855  23.2828331
  52.7996521 176.1472473  23.1051922  52.9106445 177.5181732  24.5077801
  53.3036728 178.7263641  24.8974628  53.7292252 179.3476257  24.2243862
  52.9460449 179.1331940  25.7499237  52.3703041 176.6639862  25.3669357
  52.1554375 175.7122345  25.1060276  52.6069145 176.8884277  26.3228378
  57.6230507 174.7077789  22.7906990  58.0704269 174.6424255  23.9889889
  57.5763359 173.6669312  21.9342194  57.1690483 173.7948761  21.0188789
  58.1093292 172.3066559  22.2949905  57.5053101 171.9571075  23.1322994
  57.8351250 171.3105927  21.1685104  56.8441620 171.4523010  20.7372227
  58.5634346 171.5074158  20.3817844  58.1615677 169.6333466  21.7578812
  56.8736153 169.2801666  21.7212601  59.5722923 172.3848419  22.6858463
  59.9355316 171.9081268  23.7649879  60.3699341 172.9886627  21.8381367
  59.9695511 173.2168427  20.9394035  61.7832451 173.1472168  22.1100826
  62.1389465 172.1251678  22.2404041  62.5317039 173.9117889  20.9461746
  61.8550835 174.6981354  20.6115837  63.4294090 174.2611542  21.4562511
  62.8135605 173.1727448  19.6496754  63.8111801 172.7385712  19.7156086
  62.0797195 172.3772583  19.5201435  62.7646523 174.0321350  18.3894444
  63.1339722 175.2504578  18.3936100  62.4335060 173.4314575  17.3182411
  61.9893036 173.8698730  23.4464169  62.7798767 173.4096222  24.2907104
  61.2260590 174.9490204  23.7167892  60.6069221 175.3292542  23.0152302
  61.4468918 175.7175293  24.9515457  62.5108910 175.9540405  24.9429531
  60.7580605 177.1227875  24.8371029  59.7569160 177.0095978  24.4211712
  60.6675682 177.5244598  25.8463478  61.6117706 178.0853729  23.9727859
  61.9878464 177.4873505  23.1426945  60.9400978 179.3925018  23.5524750
  60.6926727 179.9784088  24.4376831  61.5816612 179.8777008  22.8168945
  60.1278648 179.1318359  22.8739243  62.8793106 178.5510406  24.6303596
  63.4108315 177.6867828  25.0286446  63.5414238 178.9833221  23.8801270
  62.6536598 179.2964935  25.3929157  61.1284676 175.0233917  26.2636242
  61.7251396 175.3037567  27.2951813  60.1985435 174.0251007  26.2046852
  59.6839790 173.9256287  25.3413029  59.8737221 173.0900269  27.2851868
  59.6418343 173.5696564  28.2361221  58.5039711 172.4445496  26.9350452
  57.7740021 173.2538910  26.9498463  58.5240707 171.9365997  25.9708443
  57.9526749 171.3747406  27.8503704  58.1732712 171.4110413  29.0644169
  57.2436485 170.5016174  27.3782253  60.9765701 172.0058899  27.5525589
  61.4145355 171.8495636  28.6528511  61.4714432 171.3499451  26.4831142
  61.2221718 171.7633514  25.5959473  62.6685486 170.5005341  26.5342484
  62.3927689 169.7714081  27.2960987  63.0002403 169.9013672  25.1286545
  63.0045357 170.7511444  24.4460564  64.3705978 169.2237854  25.0708618
  64.6375275 168.6425934  25.9535141  64.3995743 168.5094452  24.2480659
  65.1404266 169.9885254  24.9678574  61.8563919 168.8690796  24.7612343
  61.8178253 168.0190887  25.4424973  60.8783913 169.3304443  24.8981667
  61.8530502 168.3425903  23.3045540  62.5175400 167.4882660  23.1754379
  60.8782616 167.9709320  22.9887161  62.1263542 169.1057434  22.5758495
  63.8493919 171.2738342  27.1387806  64.4897461 170.6874542  28.0659180
  64.2260132 172.4974060  26.7315960  63.7101593 172.8562775  25.9408951
  65.4358749 173.1980133  27.1591797  66.2518158 172.4851074  27.0405140
  65.6894379 174.4678650  26.3391247  64.8474731 175.1564026  26.2677689
  66.5184784 175.0221252  26.7790909  66.1022263 174.0956268  24.8590889
  66.6960526 173.1858063  24.7714558  65.1324539 173.8985138  24.4021626
  66.8739929 175.5321350  24.0375862  67.6968536 174.8785248  22.6288681
  66.9864883 174.4197998  21.9410820  68.2168579 175.6815796  22.1065655
  68.3524933 174.1052246  23.0291729  65.3651428 173.6763916  28.6142883
  66.4202652 173.8789215  29.1677017  64.2325516 173.7725220  29.2996407
  63.3751526 173.5535736  28.8127918  64.1834106 174.0712433  30.7550430
  64.9830856 174.7878113  30.9425163  62.7894630 174.6882172  31.0779934
  61.9658356 174.1172028  30.6494083  62.7744865 174.6112213  32.1651726
  62.6186256 176.1714478  30.7488976  63.5084572 176.9246368  30.4369621
  61.4787636 176.7146301  30.9777145  61.5331726 177.7208710  30.9097385
  60.7693596 176.1719818  31.4492760  64.4622192 172.8685760  31.6794586
  64.8258667 173.0548859  32.8733711  64.2433472 171.6163025  31.2053127
  63.7648773 171.5802155  30.3165703  64.0122452 170.4358673  32.0536728
  64.1106339 170.7435455  33.0947075  62.5434723 169.9145508  31.8278465
  62.4182167 169.7955170  30.7516289  62.3701553 168.9567566  32.3184700
  61.4673538 170.9066162  32.3511200  61.4051361 170.7652893  33.4301262
  61.6983223 171.9342957  32.0707016  60.0835037 170.6383057  31.7519665
  60.0454903 171.0492096  30.7430992  59.9140625 169.5624237  31.7088509
  58.9854355 171.3248444  32.5147209  58.8070869 170.9331360  33.5161476
  59.2008171 172.3901672  32.5971794  57.7134743 171.2191772  31.7126808
  57.2638321 170.3200836  31.8103771  56.9911270 171.8533173  32.0228348
  57.8610420 171.4998169  30.7537403  65.0126724 169.2868500  31.7530022
  65.2499466 168.4544678  32.6091919  65.7379761 169.3444214  30.6573296
  65.4405441 170.0169678  29.9650059  67.0000229 168.6508789  30.3950787
  66.9648895 167.6148682  30.7320766  67.3540878 168.7362061  28.9147701
  66.5164413 168.3112183  28.3617477  67.6418533 169.7573547  28.6646652
  68.8108215 167.7532959  28.5519257  68.5907135 167.8081207  27.2353230
  68.1802139 169.2249603  31.2694645  68.4736938 170.3966980  31.2930565
  68.9247894 168.3517761  31.9790745  68.8032837 167.3616943  31.8206902
  70.0404205 168.7883606  32.8778343  70.4786301 169.6938171  32.4580383
  69.4867783 169.1072845  34.3104019  70.3584595 169.1386719  34.9640808
  68.5680008 170.3492584  34.4099388  67.6938553 170.1808319  33.7809639
  68.3004913 170.3906860  35.4657936  69.1479797 171.2507172  34.2121582
  68.7497864 168.0214081  34.7225838  67.9631577 168.3040619  35.1947289
  71.1840134 167.8067169  32.9473686  72.3202133 168.0179443  32.4869766
  70.8605118 166.5075989  33.3123245  69.9314499 166.4084015  33.6958694
  71.7771530 165.3654327  33.3118401  72.8093719 165.7155914  33.3167305
  71.6559372 164.5140991  34.5562325  71.8260345 165.1583405  35.4188614
  70.7015915 163.9918671  34.6240959  72.6870804 163.5107727  34.4785576
  72.5724869 162.9785919  35.2692871  71.5652695 164.5173645  32.0265656
  70.4372635 164.4438324  31.5348587  72.6050568 163.8782349  31.4817829
  73.4924927 163.9701691  31.9551792  72.5247726 162.9433136  30.3270969
  71.4619293 162.7441559  30.1899357  73.0645905 163.6774597  29.1062622
  74.0561066 163.9532928  29.4652996  73.1777496 162.9772797  28.2785854
  72.2233047 164.8620605  28.4785385  72.0415497 165.7089081  29.1402779
  72.9452362 165.4517670  27.2960281  73.0912857 164.8465424  26.4013367
  72.5477371 166.4262390  27.0122967  73.9873123 165.6223297  27.5663815
  70.8113480 164.4191589  27.9083309  70.2404785 163.9356079  28.7010403
  70.3374557 165.2946014  27.4643326  70.9500885 163.7359161  27.0704594
  73.2283783 161.6377106  30.6258812  74.4469070 161.4706573  30.6552391
  72.3835068 160.6384735  30.8514328  71.4051437 160.8319397  30.6918411
  72.8603363 159.3272095  31.4165154  73.8210907 159.4604797  31.9137974
  71.9118347 158.8354492  32.5096893  70.9215622 158.7937927  32.0561256
  72.1321793 157.8059082  32.7918243  71.8156281 159.8502045  33.9888878
  70.9728241 159.0789642  34.6815453  73.0113907 158.3045807  30.2497864
  72.6405182 158.6440277  29.1150322  73.5835724 157.1236572  30.4845428
  73.7926025 156.9120178  31.4497471  73.5056763 156.0337219  29.5127945
  73.5856094 156.4755859  28.5195827  74.7188644 155.1592255  29.7358665
  75.5663452 155.7562561  29.3990421  74.8752213 155.0535889  30.8094082
  74.6063385 153.5852051  28.7919025  75.9229431 153.4126434  28.6447182
  72.1495438 155.2785950  29.6404305  71.6972427 155.0289612  30.7458820
  71.5413132 154.8787079  28.5021133  71.9623718 155.2188873  27.6494160
  70.2819519 154.1633759  28.4385147  69.5512619 154.7312164  29.0144997
  69.8080673 154.1407471  26.9651680  69.7612152 155.1786499  26.6355000
  70.6363754 153.7109833  26.4018745  68.4855728 153.5445251  26.6937466
  68.4890289 152.5312347  27.0954018  67.7086563 154.1470184  27.1643963
  68.2193146 153.3663788  25.1595631  69.1409683 153.1092377  24.6375046
  67.6577454 152.4367065  25.0676670  67.5725555 154.6384277  24.5154648
  66.7686539 154.9096375  25.1997814  68.3429565 155.4094391  24.5264454
  67.1901169 154.3928070  23.0770607  66.4243698 153.7427216  22.9715939
  66.8054810 155.2293091  22.6618023  67.9412308 154.0447235  22.4984703
  70.3044052 152.7540741  28.9428043  69.3673401 152.3338623  29.6699543
  71.4254227 151.9439392  28.7258358  72.2336121 152.2810974  28.2225952
  71.3957138 150.6292267  29.3115635  70.4468307 150.1893616  29.0045929
  72.3979874 149.7043304  28.5455780  72.0672150 149.6099243  27.5112782
  73.3870010 150.1552887  28.4643383  72.4494705 148.2893524  29.1618786
  72.7721863 148.3823242  30.1988525  71.4498901 147.8550110  29.1784477
  73.2711563 147.3131104  28.2897625  73.9796371 147.6469727  27.3151474
  73.1830063 146.0392914  28.6100407  73.6705170 145.2527313  28.2053642
  72.6279373 145.8007812  29.4194317  71.4045792 150.5269775  30.8564129
  70.6671829 149.7270660  31.4545746  72.0101242 151.4872589  31.5364456
  72.5648651 152.1156006  30.9729214  71.9188919 151.7254486  33.0069046
  71.8243561 150.7707977  33.5244064  73.2550125 152.4179077  33.4015350
  73.3146210 153.4180145  32.9722252  73.0864105 152.6161499  34.4600105
  74.8372726 151.4888763  33.1922798  75.7522888 152.2412109  33.8100624
  70.6296158 152.5155640  33.3895073  70.1644363 152.3780212  34.5516243
  70.1994095 153.4273834  32.5226936  70.7752228 153.5136108  31.6974030
  69.2443237 154.5574036  32.8212128  69.1386414 155.1398315  31.9059448
  67.8217545 153.9815216  33.0757561  67.8843155 153.3652039  33.9725990
  67.1300583 154.8169556  33.1840248  67.3916168 153.1367340  31.9150848
  67.6412201 153.7202454  31.0289078  67.9515991 152.2015991  31.9223175
  65.9039078 152.8202667  31.8747234  65.0265045 153.2196503  32.6428833
  65.5232162 151.9313812  30.9650230  64.5752563 151.5837708  30.9397163
  66.2226562 151.6341248  30.2997932  69.7168808 155.5339661  33.8897705
  69.4185333 156.6905518  33.6999283  70.3898163 155.0726013  34.8777390
  70.3471603 154.0715332  35.0047989  70.6221313 155.8599091  36.0890923
  69.9035721 156.6787872  36.1238213  70.2441635 154.8981323  37.2539520
  70.1253967 155.5031128  38.1528397  69.2389297 154.4943695  37.1332283
  71.2524567 153.7832947  37.5358467  72.1900482 153.4657440  36.7410049
  71.1205063 153.1393127  38.5493164  72.0106354 156.4747620  36.3429718
  72.3024673 157.2183533  37.2617950  72.9481583 156.0970459  35.5227051
  72.6101685 155.4334259  34.8404541  74.3676987 156.4734650  35.5393906
  74.6487274 156.6112671  36.5834846  75.1368942 155.2712250  34.9740639
  74.6950378 155.1755676  33.9822350  76.6678925 155.3485107  34.8937073
  77.0127563 155.1640320  35.9111290  77.0102615 154.4919739  34.3129959
  77.0116730 156.2913818  34.4683914  74.9300537 154.0578766  35.6833496
  74.0038300 153.9707489  35.9202576  74.6896820 157.7269135  34.7578926
  74.6005707 157.7803345  33.5264130  75.2021027 158.7678223  35.4329185
  75.2599487 158.6268463  36.4313545  75.5972595 160.0860291  34.8492393
  74.7195129 160.4589233  34.3214073  75.9172668 161.0236206  35.9612846
  75.0413132 161.0500488  36.6094513  76.7767868 160.5308990  36.4157524
  76.2787399 162.4187317  35.4158478  77.1022186 162.3180237  34.7088547
  75.4954605 162.8675385  34.8050003  76.8031540 163.3309479  36.5059814
  77.3951263 162.8059235  37.4813614  76.5778122 164.5758057  36.4010658
  76.7591019 159.9119263  33.8276787  77.8618317 159.5093079  34.2187614
  76.5447235 160.2781830  32.5245018  75.6151123 160.5923462  32.2852669
  77.6138840 160.3579559  31.5560493  78.5322037 159.8778534  31.8940945
  77.1979294 159.5999603  30.3015900  76.1096878 159.5394897  30.2885075
  77.6469345 160.3773651  29.0078926  78.7150497 160.5235901  29.1686935
  77.5912552 159.7628479  28.1093521  77.1481094 161.3253479  28.8064404
  77.7226257 158.1466370  30.2180195  77.2570496 157.7378082  29.3212452
  78.7978973 158.0248260  30.0874443  77.2977371 157.2387543  31.3721390
  76.2303467 157.2969208  31.5851822  77.7450714 156.2528992  31.2453175
  77.6694107 157.6871948  32.2934799  78.0029907 161.8143768  31.3307934
  79.1815643 162.1207886  31.3063679  77.0532303 162.6665955  31.0592289
  76.0905838 162.3636475  31.0186691  77.2806549 164.0971832  30.8667603
  78.0881271 164.3138275  31.5661564  77.7392197 164.3281555  29.3930359
  78.4913712 163.6217346  29.0418186  76.5315857 164.2195282  28.3490562
  75.9055786 165.1075745  28.4362392  76.8454208 164.1663818  27.3065643
  75.9682159 163.3102417  28.5586014  78.3171158 165.6300201  29.2216682
  79.2753067 165.6298676  29.2806511  76.1327057 165.0178833  31.3477650
  75.1900330 164.5720367  32.0299873  76.2332916 166.3010712  31.0094242
  76.9580536 166.6321259  30.3887596  75.2851181 167.3166351  31.4986782
  74.3040466 166.8424377  31.5259476  75.7220383 167.8841858  32.8096046
  75.6959534 167.1093597  33.5758171  77.1067886 168.4575043  32.8301353
  77.1040192 169.3435974  32.1953812  77.4295731 168.7841339  33.8186798
  77.8263168 167.7303314  32.4538307  74.9050064 169.0215759  33.2391777
  74.1123657 168.7108917  33.6828003  75.1318817 168.4277649  30.4144268
  76.0258789 168.7148285  29.6898975  73.9465179 169.0366058  30.4020557
  73.2441483 168.6841431  31.0365219  73.6129379 170.1815338  29.5450802
  73.4939423 169.8115082  28.5267429  72.2560501 170.7293091  30.0071621
  71.4433365 170.0336761  29.7981644  72.2449493 170.9001770  31.0836315
  71.9148560 172.0158234  29.2403049  72.7315979 172.7269135  29.3643055
  71.7663651 171.8224487  28.1779213  70.6071014 172.6640930  29.7208977
  69.8465118 171.8876495  29.6388493  70.7677307 173.0396423  30.7314739
  70.2442017 173.8112183  28.8619137  71.1448593 174.4150543  28.7509289
  69.9847488 173.5187683  27.8444405  69.1065063 174.6497192  29.3942089
  69.1881104 175.0561371  30.3152180  68.9086304 175.4408722  28.7983742
  68.2714081 174.0866547  29.4695950  74.7666550 171.2159729  29.5910778
  75.1284790 171.7574615  28.5079327  75.4079742 171.5541534  30.7359924
  75.0361481 171.1607971  31.5887032  76.3735962 172.6675720  30.7918568
  76.0020981 173.5646515  30.2965450  76.6940689 172.9840240  32.2502708
  77.1204529 172.1479950  32.8046608  77.4795227 173.7395172  32.2304344
  75.5767517 173.6688080  33.0717506  74.7621307 174.4482422  32.5390091
  75.3661652 173.3294220  34.2778702  74.4789200 173.5231171  34.7199020
  75.9267502 172.6030426  34.7000389  77.6549606 172.3259277  29.9572029
  78.3197021 173.2173767  29.4419537  77.9572296 171.0247040  29.7488594
  77.3437119 170.3462219  30.1770706  79.1687927 170.6943665  28.9401493
  79.9503937 171.4351349  29.1088867  79.7618103 169.3436279  29.4682922
  79.0597153 168.5184479  29.3489132  80.6080093 169.0691833  28.8384361
  80.2109680 169.2685089  30.8500614  79.4046936 169.5317230  31.5347137
  80.4988708 168.2323456  31.0277481  81.4109192 170.1322174  31.2201538
  81.9550171 170.8221283  30.3470135  81.9157028 170.0980530  32.3931389
  78.9023514 170.6307220  27.4465160  79.8298645 170.5265045  26.6370792
  77.6662292 170.7618103  27.0177307  76.9409103 170.7834625  27.7202625
  77.2958832 170.8174438  25.5850296  77.8011093 169.9423828  25.1762581
  75.7175522 170.6656036  25.3198013  75.2005844 171.4256744  25.9055748
  75.4081650 170.8508606  23.7986431  75.9796371 170.1372070  23.2051697
  74.3328934 170.8582764  23.6202087  75.7392883 171.8393097  23.4801617
  75.2283783 169.2780304  25.6976719  75.7979889 168.6049957  25.0568333
  75.4580688 169.1558075  26.7561626  73.7391357 169.1029816  25.5460167
  73.4281235 169.1000977  24.5013313  73.3811035 168.2311859  26.0936375
  73.3144073 169.9548645  26.0770645  77.9100876 172.0274658  24.9037247
  77.7338562 173.1535187  25.4543800  78.6285782 171.8648376  23.7655392
  78.7575989 170.9624786  23.3305550  79.2336349 172.9271088  23.0016117
  78.6145325 173.8124695  23.1463318  80.6682587 173.2384644  23.4410248
  80.9130707 174.2983856  23.3723316  80.7316895 173.0299377  24.5090103
  81.7675781 172.3390198  22.8437538  82.0884705 171.0797272  23.3989067
  81.4634399 170.6774292  24.1824207  83.1709595 170.3292236  22.8510017
  83.2684479 169.3729248  23.3433247  83.9315109 170.8490906  21.7814655
  84.8508148 170.3868256  21.4534492  83.6280670 172.0998688  21.2507973
  84.2746201 172.5807953  20.5317116  82.5925293 172.8531189  21.8420467
  82.3936005 173.8617706  21.5112000  79.2326202 172.5890503  21.5020618
  79.3097458 171.4328308  21.1001701  79.0313797 173.6442566  20.7190475
  78.8487930 174.5317841  21.1652126  78.7125244 173.5670929  19.2700157
  78.1358337 172.6638336  19.0708542  77.7672424 174.7299500  18.8873844
  78.2026672 175.6966095  19.1405163  77.6079941 174.5975189  17.8172417
  76.4784775 174.6009827  19.5219898  76.1101990 175.4611359  19.7367134
  79.9570770 173.4863586  18.4213409  80.5556335 174.4965668  18.0648136
  80.4044266 172.2691956  18.2473431  80.0450287 171.5056763  18.8022804
  81.6400223 171.9161835  17.4869003  82.4315796 172.6397247  17.6818810
  82.2360687 170.5434265  18.0153580  82.4175339 170.6732025  19.0822830
  81.4769363 169.7976074  17.7796268  83.5635681 170.1887970  17.2769241
  83.3445206 170.1822357  16.2091789  84.6735382 171.2068787  17.5479107
  84.8683090 171.2984161  18.6164532  85.5747452 170.8763580  17.0314999
  84.4832764 172.2261353  17.2117252  84.1673050 168.8540039  17.6479053
  83.6079941 168.0099792  17.2442837  85.1761322 168.7215576  17.2569752
  84.2386169 168.6889648  18.7229767  81.3920975 171.9825439  15.9191084
  82.3831100 172.2372589  15.1683550  80.1260910 171.9626617  15.4544888
  79.3932571 171.9239197  16.1484337  79.7219696 172.2120056  14.0878124
  80.6140900 172.1856689  13.4620895  78.7337875 171.0471191  13.7576971
  79.0972900 170.0592651  14.0407591  77.7645340 171.1364594  14.2482653
  78.6229248 171.0133972  12.4073544  78.3984146 170.1436462  12.0686407
  79.0368347 173.5905609  13.9669914  78.6026993 174.1611023  14.9444370
  78.7992706 174.0023651  12.7472420  79.2837906 173.4980621  12.0185280
  77.7759628 175.0131836  12.3456469  77.6657333 175.8333130  13.0551043
  78.1546326 175.7269135  11.0128527  78.1732330 175.0622559  10.1491508
  77.3929291 176.4607391  10.7493725  79.4832458 176.5049591  11.0961790
  80.3340302 175.8273315  11.1674719  79.5799713 177.2803802   9.7196636
  78.8478699 178.0766449   9.5851040  80.5223541 177.8279877   9.7311773
  79.5963898 176.5731506   8.8904104  79.6688843 177.5373230  12.1657019
  79.6971436 177.0334778  13.1318445  80.6405563 178.0064545  12.0112200
  78.7928467 178.1846008  12.2072067  76.3486557 174.4406738  12.2675066
  75.3205109 175.1074829  12.3287344  76.2904205 173.0883026  12.4496603
  77.1343384 172.5335693  12.4362497  75.0580750 172.3329773  12.7410746
  74.2509460 172.8614349  12.2337503  75.1088715 170.8588867  12.2154112
  75.9005508 170.2919769  12.7052727  74.1874084 170.3281250  12.4548206
  75.4465027 170.7407074  10.4059563  75.5428391 169.4108734  10.3213463
  74.7116089 172.4698029  14.2574396  73.8142166 171.7645569  14.7324810
  75.3963242 173.2931366  15.0423460  76.0663147 173.8951263  14.5853729
  75.2062912 173.3802948  16.4649582  75.6241455 174.3042297  16.8647480
  74.1466599 173.3736115  16.7203770  75.9290695 172.2580109  17.2670612
  77.0299149 171.8872528  16.8431549  75.3659973 171.7760773  18.3711243
  74.1440964 172.2983856  18.9468975  73.2594757 172.2639771  18.3109989
  74.3116226 173.3208771  19.2853298  73.9300461 171.3577423  20.0948486
  73.4290695 170.4587097  19.7358646  73.4162674 171.8608246  20.9140263
  75.2520065 170.8852844  20.5379276  75.1012497 169.9365845  21.0530415
  75.7410965 171.6062927  21.1929455  76.0002975 170.7175293  19.2070141
  77.0551071 170.9323730  19.3782520  76.0111084 169.2764435  18.6781178
  76.5989761 168.3625641  19.2654533  75.2897949 168.9778595  17.5954990
  74.7330856 169.6860199  17.1386852  75.1562271 167.6108398  17.0896473
  76.0951233 167.0746765  17.2279358  74.0817413 166.9922638  17.9634590
  74.1162720 167.3156586  19.0038090  73.1536713 167.2869263  17.4735985
  74.0290222 165.4606781  17.9991074  73.9937668 165.0799103  16.9783821
  74.8090210 165.0617523  18.6476135  72.4723663 164.9213715  18.8859768
  71.2278748 165.2309418  17.5985584  71.3687210 164.4998322  16.8024845
  70.2091751 165.1163177  17.9689713  71.3458176 166.2400208  17.2036419
  74.8529816 167.5850525  15.6217575  74.1780472 168.4425964  15.1071148
  75.3497772 166.5298615  14.9567404  76.0895157 166.0095825  15.4064178
  74.8973923 166.2070007  13.5600519  73.9527588 166.6690979  13.2733135
  75.9166794 166.7216187  12.5368395  76.8891220 166.2681274  12.7286777
  75.6234512 166.5552826  11.5002823  76.0447922 167.7764130  12.7798872
  74.7956238 164.6546478  13.4041328  74.8074265 163.9429932  14.4228678
  74.6131821 164.1999969  12.1504240  74.8793106 164.8188477  11.3978949
  74.6995163 162.8058472  11.8699379  74.7077332 162.2420349  12.8027496
  73.3608246 162.3240356  11.1664944  73.1798477 162.9029541  10.2608500
  73.5222855 161.3482056  10.7084694  72.4531860 162.4254303  11.7614861
  75.9571915 162.5211182  10.9776964  76.1046371 163.2003784   9.9402351
  76.7826996 161.4900513  11.3336334  76.6242523 161.1543274  12.2729340
  78.0020599 161.1142883  10.6282320  78.0563965 161.7278595   9.7289677
  79.2261047 161.5268250  11.4571466  79.3498459 160.8154755  12.2736998
  80.0997620 161.4905090  10.8063745  79.3036118 162.9959412  12.0047302
  79.7322922 164.1328278  11.2406502  80.0467148 164.0212097  10.2134790
  79.8495560 165.3538818  11.8408508  80.0464020 166.1934204  11.1905937
  79.4487228 165.5518188  13.1756849  79.4278488 166.7897644  13.7273293
  79.8612671 167.4491119  13.1805124  78.8750534 164.4380951  13.9208040
  78.5691452 164.5332642  14.9521923  78.8424759 163.1595917  13.3160677
  78.4967880 162.2900238  13.8552847  78.0545197 159.6087952  10.2641621
  77.1822281 158.8948975  10.6227360  79.0326843 159.1213837   9.4966078
  79.7221756 159.8125153   9.2376966  79.1269302 157.6524658   9.1244879
  78.4240646 157.0871429   9.7364454  78.6095505 157.3773499   7.6827192
  78.7325134 156.3331146   7.3953862  77.1580811 157.5725250   7.6525493
  76.9684372 158.5650940   8.0611477  76.7834015 157.5869751   6.6290708
  76.6568909 156.7693024   8.1926718  79.2768478 158.2386322   6.6263061
  80.3491135 158.0573425   6.7003326  78.8093109 157.8581390   5.7181516
  78.9226303 159.2473755   6.8385682  80.4282532 156.9037170   9.2586517
  81.4942474 157.3490753   8.8260412  80.3806686 155.6189270   9.7538605
  79.4925766 155.2436523  10.0547943  81.5777359 154.7050323   9.8114004
  82.3492279 155.4289398  10.0737896  81.4956207 153.7294922  10.9834099
  82.5384216 153.5874634  11.2671299  81.0223236 154.1953583  11.8477335
  80.8965683 152.3189697  10.6503420  79.9090652 152.2094574   9.9264917
  81.5415726 151.2854919  11.0111465  81.2917023 150.3234406  10.8319111
  82.3398743 151.4794922  11.5986700  81.8415298 154.0370331   8.4606962
  80.9160156 154.0121002   7.5801582  82.9830551 153.3124237   8.2013807
  84.1982193 153.4174347   8.9518232  84.1909332 152.8026581   9.8518791
  84.3998337 154.4419250   9.2646656  85.2943878 152.8229675   8.0317059
  86.0130005 152.3096619   8.6706057  85.7842941 153.6086884   7.4566031
  84.6027298 151.8278351   7.1273484  84.6032486 150.8753662   7.6573439
  85.0722656 151.8387756   6.1437230  83.2330093 152.4939423   6.9868698
  83.3009949 153.2543030   6.2088432  82.1477890 151.4976654   6.6770167
  81.8164444 151.2306976   5.4839740  81.5320587 150.8919067   7.6706524
  81.8029327 151.1105347   8.6187744  80.4332886 149.8932037   7.4463649
  80.6783676 149.5457458   6.4427176  80.5213776 148.6971741   8.3977633
  80.0045013 148.9973297   9.3092718  79.9223175 147.9310150   7.9055758
  81.9178391 148.2101288   8.6906214  82.6565781 148.5916748   9.8453836
  83.8829956 148.0666962   9.6793671  84.7034225 148.0371552  10.3811007
  83.9883881 147.5234528   8.4743671  84.8306503 147.0527496   8.1758060
  82.7270279 147.4980469   7.8568439  82.3836746 147.1036835   6.9118681
  79.0014877 150.5006409   7.4641533  78.0539474 149.8511505   7.9075241
  78.8045654 151.7271881   7.0284252  79.6213379 152.3213196   7.0279746
  77.4953918 152.3391876   6.6255903  77.6697311 153.3078156   6.1571331
  77.0151978 151.7337952   5.8568110  76.4768753 152.6970520   7.7829809
  75.4957962 153.2931824   7.4528866  76.7833176 152.3623810   9.0488338
  77.6102829 151.8012695   9.1950598  75.9688721 152.8204041  10.1925240
  74.9483109 152.4501648  10.0952282  76.5939178 152.2296143  11.4858456
  76.9435425 151.2311554  11.2232466  77.4677277 152.8363647  11.7233133
  75.5696564 152.0784454  12.6283417  74.7870636 150.9325409  12.6533890
  74.9655380 150.1003113  11.9885931  73.6939316 150.8085022  13.5235691
  73.1921463 149.8547821  13.5944185  73.4490967 151.8938751  14.4279118
  72.4561005 151.7458344  15.3597565  71.7207108 151.2209778  15.0352116
  74.2369995 153.0745850  14.3841763  74.0713196 153.8088226  15.1586676
  75.2513733 153.2438049  13.3881874  75.8058090 154.1622314  13.2637815
  75.9911957 154.3293457  10.3505049  77.0447845 154.9612427  10.2954817
  74.8059692 154.9553680  10.6021700  74.0031815 154.3500671  10.5059509
  74.6250458 156.3810883  10.7872591  75.4970245 156.7752228  10.2653179
  73.4139023 157.0569916  10.1246319  72.5139694 156.7833557  10.6753950
  73.6021729 158.5871887  10.2634163  74.5046692 158.9520569   9.7730274
  72.7995148 159.1374207   9.7723989  73.5874634 158.9145355  11.3029976
  73.3563080 156.6332092   8.6005659  73.4629211 157.4886169   7.9334726
  74.1218491 155.8939362   8.3649197  72.0376282 156.0077209   8.2009192
  71.3520660 156.8406830   8.3566856  72.0494003 155.6514282   7.1708584
  71.8409576 155.1917877   8.8964024  74.6994247 156.6693573  12.3416691
  73.9304962 156.1838531  13.1575251  75.7023926 157.4333344  12.7113590
  76.4058456 157.6491547  12.0195026  76.0003891 157.7169647  14.1112843
  75.3852386 157.0675812  14.7341795  77.4595718 157.2769928  14.4626579
  78.1076431 157.4453888  13.6025715  77.8594666 157.9172058  15.2489853
  77.5442352 155.8912354  14.9515238  77.0281067 155.3324127  16.0912418
  77.3019409 154.0393066  16.0434818  76.9407196 153.2881470  16.7302704
  78.0222778 153.7684784  14.9425907  78.4293976 152.8859863  14.6676931
  78.1605148 154.9284058  14.2102623  78.8021698 155.0845947  13.3556976
  75.7130508 159.2165680  14.3333397  76.3715591 160.0399323  13.7707319
  74.7226410 159.5063934  15.1844034  74.2213211 158.7799072  15.6753168
  74.3684616 160.8626862  15.6606083  74.7356339 161.5835419  14.9301043
  72.8705978 161.1681519  15.7333307  72.3712158 160.4570160  16.3913631
  72.7191467 162.0948181  16.2869129  72.1411057 161.3823700  14.4187031
  72.6195602 162.2306213  13.9291706  72.3965912 160.5386047  13.7776833
  70.6354294 161.6211090  14.6098318  70.0292435 160.7453613  15.3052263
  70.0500183 162.5419159  13.9594030  75.1570206 161.1214600  16.9675274
  74.7804031 160.5877533  18.0300903  76.1773148 162.0176239  16.9693604
  76.4345703 162.5366669  16.1420002  77.0172958 162.2709961  18.1276722
  76.6324997 161.6746521  18.9549561  78.5140686 161.8420258  18.0254002
  79.0356293 162.0366974  18.9625111  78.6844101 160.3602142  17.6918411
  77.9042282 159.9812469  17.0316811  79.5828705 160.2112885  17.0929298
  78.7679672 159.7449493  18.5876923  79.0765533 162.5185852  16.9930038
  80.0285797 162.6236420  17.0579109  76.8939133 163.6931458  18.6626930
  77.1188278 164.6379852  17.8918571  76.7784500 163.8769379  19.9684029
  76.7669296 163.0258789  20.5121460  76.7543716 165.0846863  20.7547188
  76.2920456 165.8935547  20.1889572  75.7617111 164.8516083  21.8906288
  74.7681427 164.6410522  21.4948978  76.0903091 164.0666199  22.5717335
  75.5657425 166.1244202  22.7336426  76.5707169 166.4783020  22.9636135
  74.6787949 167.1810760  22.0418472  73.7558212 166.7333069  21.6734161
  74.4447250 167.9817200  22.7434673  75.0839920 167.6668396  21.1541882
  74.9072876 165.7038269  24.0849495  75.3910904 164.8422852  24.5451355
  74.7316208 166.6323395  24.6282101  73.9259109 165.2492828  23.9493237
  78.1798248 165.4093933  21.2208939  78.8320007 164.6088409  21.8754692
  78.6110535 166.6335602  20.9217377  78.0585938 167.1733856  20.2709846
  79.9291916 167.1817627  21.3192902  80.5981903 166.3346100  21.4705791
  80.4729691 167.9816742  20.1392422  81.3866577 168.5040131  20.4228840
  80.8240433 167.0649872  18.9240170  79.8866425 166.8989563  18.3931618
  81.5662384 167.5767517  18.3113575  81.2484665 166.1170959  19.2548752
  79.6598129 169.0367432  19.6525326  78.8497238 169.1803589  20.1472359
  79.8647156 167.8647919  22.7096348  79.0593109 168.7916870  22.9178371
  80.6521683 167.4360504  23.6856689  81.2966309 166.6818390  23.4960785
  80.7407303 167.9891205  25.0950851  80.4577942 169.0413971  25.0677032
  79.8497849 167.1820831  26.1133022  79.9148560 167.7513885  27.0405350
  78.3828506 167.0382843  25.6671543  78.4272766 166.2452850  24.9206448
  77.7623444 166.7144012  26.5027256  77.9897919 167.9250946  25.1699791
  80.2971191 165.7614899  26.4407578  81.1591873 165.8277435  27.1045017
  79.5307770 165.2321625  27.0070000  80.5534897 165.1873322  25.5504074
  82.2108154 167.9202423  25.6086845  82.9353943 166.9609528  25.3772545
  82.6803970 169.0108948  26.2332840  82.1305008 169.8272095  26.4598999
  84.0507431 169.1034241  26.7505493  84.7510757 169.0304871  25.9184914
  84.2583313 170.4066620  27.4777794  83.6305237 170.4752502  28.3661766
  85.2967606 170.5847626  27.7571602  84.0038834 171.6199799  26.5817680
  84.8791733 171.8906708  25.4960995  85.5860519 171.1385040  25.1783466
  84.7399902 173.0686188  24.7046013  85.3892593 173.2922668  23.8710365
  83.6367416 173.8925934  24.9695415  83.4399109 175.0596771  24.3346844
  83.7348099 175.0086670  23.4225254  82.8526688 173.6920624  26.1542778
  82.0682373 174.4013977  26.3731499  83.0204239 172.5503998  26.9359837
  82.4319687 172.3875885  27.8268280  84.3287277 167.9695282  27.8050518
  85.4401703 167.4107361  27.7943478  83.3284836 167.4998474  28.5783291
  82.4679337 167.9985962  28.7538147  83.5987473 166.5161743  29.6182556
  84.5441208 166.0046997  29.4372253  83.8501740 167.2467499  30.9713802
  84.5307770 168.0470428  30.6808701  82.9295044 167.7201385  31.3125000
  84.4916687 166.4794312  32.1289177  83.8256607 165.6440582  32.3449898
  85.4095306 166.0373993  31.7413120  84.8095779 167.3567505  33.3873367
  85.4003677 168.2087708  33.0509911  83.8344193 167.7034912  33.7293053
  85.5169449 166.5403748  34.4964371  85.2893677 166.9805756  35.4672890
  85.1854324 165.5159912  34.3266411  86.9869843 166.5697021  34.3406334
  87.3750381 167.4944916  34.4600830  87.3545303 166.1461029  35.1806221
  87.2663803 166.1892395  33.4477272  82.5339737 165.4251709  29.7705688
  81.3757095 165.6581573  29.4743652  82.8735886 164.2096252  30.1542816
  83.8687744 164.0910034  30.2793236  82.0323715 163.0757446  30.4206161
  81.0109940 163.3350983  30.6991959  81.7977905 162.2772522  29.1048660
  82.8131943 162.0380859  28.7888603  81.1065598 161.4398651  29.2002430
  81.3795700 163.0295868  28.4361515  82.5908585 162.2392883  31.6028118
  83.7890472 162.0422363  31.7649288  81.6808319 161.8450623  32.4840393
  80.6962433 161.9147949  32.2699471  82.0141449 161.4263458  33.8414230
  82.8810806 162.0346222  34.0993538  80.8960342 161.9088287  34.7720375
  79.8994904 161.5542603  34.5088196  81.0614548 161.5124054  35.7738342
  80.6920242 163.7130280  34.6903191  81.7938080 164.0601959  35.3614616
  82.2821732 159.9643402  33.9892883  83.4738235 159.5776062  34.0184898
  81.2712173 159.1400452  33.9893761  80.3650131 159.5476074  33.8082733
  81.2998657 157.6604462  34.0548134  82.1377258 157.3306427  34.6690903
  80.0346756 157.1288910  34.7647362  79.1835327 157.6574402  34.3354454
  79.7580414 156.0758820  34.7121811  80.0619659 157.3900452  36.2635765
  80.9432220 157.0118256  37.0496063  79.1385345 158.1736298  36.6286011
  79.0410233 158.3839417  37.6116371  78.5005112 158.5952301  35.9688454
  81.5337906 157.0356293  32.6397858  80.8210220 156.1269531  32.1658592
  82.6463699 157.4009399  31.9541779  83.1227112 158.2338562  32.2695389
  83.1694565 156.7042389  30.8019638  82.5154495 155.8901825  30.4894104
  83.2189713 157.6508179  29.5667839  83.9271622 158.4634857  29.7284622
  83.6171188 157.0703583  28.7345238  81.8744278 158.1660156  29.0541325
  81.3901291 158.7607117  29.8286572  82.0495453 158.9989014  27.8087425
  82.4416428 158.4880066  26.9293442  81.0562515 159.2733002  27.4535484
  82.6585007 159.8729095  28.0398083  81.0775833 156.9098511  28.5717621
  80.7692337 156.4000854  29.4845409  80.1709442 157.3079224  28.1160831
  81.5967484 156.2570343  27.8700523  84.5916214 156.0925140  31.0252972
  85.4070358 156.6203308  31.7920971  84.9322433 154.9879456  30.2961349
  84.2121201 154.7543335  29.6275921  86.1913071 154.3094482  30.1774330
  86.8812943 154.8826752  30.7966633  86.0237427 152.8617096  30.7393475
  85.3696823 152.2618408  30.1065331  87.0201721 152.4211578  30.7054787
  85.5668640 152.7429352  32.2373161  84.8546295 153.5580139  32.8042068
  85.8906937 151.6573334  32.9039574  85.6504517 151.5483551  33.8788948
  86.2096100 150.8281097  32.4235687  86.6272507 154.3157959  28.6849155
  85.8413010 154.6232147  27.8150768  87.8890457 154.0231018  28.4593925
  88.4293747 153.6630859  29.2330379  88.4241943 153.8900299  27.1140003
  87.7283478 154.2565918  26.3593311  89.6359482 154.8079681  26.8918800
  90.4991837 154.3461456  27.3710899  89.8437576 154.9153442  25.8272743
  89.6356049 156.2545624  27.4506607  89.3768768 156.2459564  28.5094719
  91.0381851 156.8614960  27.1434765  91.3037643 156.6744080  26.1030083
  91.0979385 157.9094696  27.4371929  91.7560654 156.3048096  27.7458477
  88.6290436 157.1363525  26.6986389  87.6513824 156.6566620  26.6521206
  88.5848694 158.1123047  27.1820469  88.9890671 157.2983246  25.6826439
  88.7975769 152.4609222  26.6872978  89.3690872 151.7389984  27.5046921
  88.6190720 152.1943512  25.3872547  88.1317978 152.8796234  24.8277264
  89.2065048 150.9914093  24.7403412  89.9441452 150.6044922  25.4433899
  88.2517548 149.8352966  24.6539173  88.6716003 148.9558716  24.1656246
  88.0572968 149.5640259  25.6915588  87.0348358 150.2705231  24.0311852
  86.3554153 150.3000183  24.7087746  89.8741684 151.2538605  23.3433380
  89.5598297 152.2119446  22.6517639  90.7711182 150.3112640  22.8870525
  90.9196854 149.4523010  23.3971729  91.5571518 150.4537659  21.6853275
  91.8913651 149.4966431  21.2849064  90.9910507 151.0132294  20.9405994
  92.8538132 151.2250824  21.9620819  93.3867950 151.2651978  23.0665188
  93.3719177 151.8591919  20.8883228  92.9597626 151.7122040  19.9780331
  94.2887726 152.9749451  21.0595436  94.1237717 153.2962036  22.0879726
  95.7122040 152.5345459  20.7059803  95.6676865 152.0527496  19.7292595
  96.4314194 153.3437805  20.5795631  96.2899780 151.5314941  21.7022972
  95.6237869 150.6740417  21.7974873  97.2172394 151.1288757  21.2946281
  96.5647354 152.2550354  23.0195007  97.1944733 153.1381073  22.9112968
  95.6093674 152.5387878  23.4609184  97.3318024 151.2622070  23.8417759
  98.3372650 151.3490906  23.8019276  96.9059525 150.2591248  24.5647945
  95.6943283 150.1782379  24.9275589  95.0966339 150.9727631  24.7498627
  95.2852097 149.3317108  25.2965050  97.7303391 149.2648315  24.8622227
  98.6243896 149.1110535  24.4182339  97.3835373 148.5531158  25.4893570
  93.8124542 154.0637665  20.0671978  93.1252975 153.7104950  19.1206398
  94.0867233 155.3955536  20.3493843  94.7575302 155.9107819  21.5581627
  95.8369293 155.8404694  21.4237919  94.4827957 155.2043152  22.3414478
  94.3178329 157.3415985  21.7794800  95.0808487 158.0416260  22.1198883
  93.4650116 157.3718109  22.4576302  93.8599854 157.7716522  20.3790359
  94.6080322 158.2667389  19.7598400  93.0244522 158.4438477  20.5743122
  93.5245438 156.4533691  19.5830975  92.4809570 156.2061310  19.7777863
  93.8996429 156.5215454  18.1217289  95.0800018 156.3159332  17.7303772
  92.9741669 156.7623901  17.2191296  92.0089798 156.7014465  17.5103321
  93.2667999 156.7184448  15.7611961  94.3295822 156.9006348  15.6018295
  92.9225616 155.3176270  15.2737494  93.5938873 154.5705414  15.6971493
  91.9211273 155.0367279  15.5998278  93.1159821 155.2665710  13.8706770
  93.2991714 154.3526764  13.6408253  92.4961548 157.7171783  14.8789845
  91.4426270 158.2060394  15.3549538  93.1425705 158.1388550  13.7820091
  94.0470428 157.7534332  13.5507288  92.7297363 159.1676788  12.9035025
  91.9600372 159.7487946  13.4113970  93.8897171 160.0777740  12.4553919
  93.5011368 160.8809814  11.8293209  94.4981155 160.7552643  13.7076674
  94.8161621 160.0509644  14.4763708  95.3985748 161.3113861  13.4468851
  93.6978607 161.3332214  14.1699152  94.8274765 159.2859650  11.6457729
  95.4352798 159.8805847  11.2001133  92.0500565 158.6031342  11.6108751
  91.5225372 159.4208221  10.8391590  91.9843674 157.2481842  11.4990501
  92.3641434 156.7220459  12.2730350  91.2641602 156.6580811  10.3492203
  91.6634598 157.0974426   9.4350967  91.5925903 155.1477966  10.3485146
  91.2697601 154.7558746  11.3130226  91.0046158 154.6196594   9.5978746
  93.1078033 154.7827606  10.2001867  93.7316055 155.1096344  11.0321312
  93.1298676 153.6950073  10.1339035  93.6338501 155.2695312   8.7782698
  92.8663177 155.5818634   7.8397574  94.8780823 155.3761902   8.6957169
  89.7348785 156.9679718  10.2445326  88.9381866 156.5958099  11.1498480
  89.3714600 157.5484924   9.1588268  90.1029663 157.7689819   8.4982300
  87.9697495 157.8782349   8.8291073  87.9722900 158.4020386   7.8732200
  87.1244812 156.5413971   8.6400461  87.8186188 155.7880249   8.2676258
  86.7748718 156.2034302   9.6155701  85.9437714 156.5390625   7.6366506
  84.5935364 156.6537018   8.0729704  83.8283844 156.5780487   6.9138780
  82.7530136 156.4902344   6.8664355  84.5988083 156.3867035   5.8319983
  84.2513504 156.0925140   4.9304309  85.9227524 156.4348602   6.2564240
  86.8220520 156.1159210   5.7505155  87.3519821 158.8698578   9.7993288
  86.0904160 158.9714508   9.8354683  88.1566849 159.6395721  10.5970306
  89.1435242 159.4677734  10.4677038  87.5452652 160.4639740  11.6482706
  86.9774399 159.8755951  12.3690243  88.6765213 161.0571289  12.4653120
  89.2259750 160.2880402  13.0081825  89.4649582 161.4517059  11.8243895
  88.1894531 162.0888519  13.3228388  88.8838730 162.4053345  13.9052706
  86.6125565 161.6320648  11.1524487  86.9667053 162.5256348  10.3646240
  85.4403458 161.7619781  11.7627668  85.1967621 160.9937592  12.3715420
  84.4046021 162.7717285  11.4898853  84.2623596 162.7282867  10.4100742
  83.0963211 162.3578644  12.1761761  83.2691879 162.4300995  13.2499542
  82.2615891 163.0294800  11.9755335  82.6478653 160.9414368  11.9613562
  82.7878036 160.2134857  10.8163643  83.1137161 160.6123047   9.8670855
  82.4471970 158.8876038  11.0231142  82.4783096 158.1522675  10.3314390
  81.9103012 158.7360382  12.2441626  81.2860260 157.6827087  12.8566055
  81.1012344 156.7080383  12.4296751  80.8124619 157.7990875  14.1657581
  80.3711243 156.9754181  14.7072258  80.9194260 159.0244598  14.8607407
  80.6239624 158.9949341  15.8991194  81.4803543 160.1379700  14.2157230
  81.5186768 161.0545959  14.7855844  81.9934692 160.0122833  12.8989735
  84.8349380 164.1667023  11.7969055  84.1608810 165.0673981  11.3866644
  85.9554291 164.3598480  12.4785261  86.3765564 163.5068817  12.8179207
  86.4609375 165.6377258  13.0110826  85.9110184 166.4538574  12.5424547
  86.1359634 165.7028961  14.4655886  86.6534653 164.8740692  14.9486332
  86.4518356 166.6247559  14.9539633  84.6811371 165.6026764  14.8352757
  83.8248901 166.7313232  14.7650242  84.0994415 167.7090912  14.3976364
  82.4638367 166.5684357  15.1434956  81.7546844 167.3636932  14.9672699
  81.9943848 165.4450073  15.8010883  80.9828491 165.4650269  16.1789742
  82.8001785 164.3084412  15.8620996  82.3946304 163.4243164  16.3314095
  84.1085663 164.4326935  15.4321365  84.7447815 163.5694580  15.5604038
  88.0002747 165.8182983  12.6702986  88.8451614 165.2446747  13.3803902
  88.4255295 166.6345825  11.6127453  87.5628204 167.3097687  10.6689215
  87.3498077 168.3225403  11.0109797  86.6032257 166.8497162  10.4330158
  88.3231430 167.4297333   9.3616352  87.8866653 168.2307434   8.7649965
  88.1278152 166.4788818   8.8658476  89.8268204 167.6383820   9.8955307
  90.1287384 168.6553650  10.1459627  90.5702286 167.2984161   9.1745090
  89.8029785 166.6798706  11.1284542  90.0665436 165.7030487  10.7228975
  90.8273544 167.0529480  12.1556835  90.7731857 167.9565887  12.9857998
  91.9878540 166.4043732  12.1453285  92.0760880 165.6864166  11.4404497
  93.0846786 166.5522156  13.0540152  93.9138412 165.9743500  12.6457682
  93.3305893 167.5969086  13.2444363  92.9077988 165.8589478  14.3914146
  93.8263168 165.9377899  15.2087622  91.7798080 165.2449951  14.6834030
  91.0393372 165.2256927  13.9967937  91.5019913 164.5303650  15.9497547
  92.3246002 164.7964325  16.6135483  90.1321411 165.0175781  16.6151257
  89.3927460 164.8579712  15.8303194  89.8685226 164.4241791  17.4906120
  90.1115570 166.4592285  17.0759449  90.3735428 166.7185364  18.4229202
  90.4271698 165.8822784  19.1042461  90.2929840 167.9969177  18.8988171
  90.5937424 168.1927032  19.9174519  89.8981400 169.1053467  18.1163883
  90.0456848 170.3740540  18.5479259  90.0246658 170.4273376  19.5062141
  89.6433945 168.8277283  16.7744999  89.2266083 169.6641083  16.2330494
  89.6966171 167.4937897  16.2447624  89.3501816 167.1716309  15.2738886
  91.4675446 163.0415039  15.8442841  90.8452911 162.5231476  14.9402046
  92.1571655 162.3008270  16.7177315  92.7488708 162.7824554  17.3795738
  92.0541687 160.8664703  16.9303951  91.9124680 160.3059540  16.0063553
  93.3793182 160.3533020  17.5524807  93.6654892 161.0971832  18.2960300
  93.2022552 159.4443054  18.1273365  94.2226105 160.3003082  16.8638954
  90.8140488 160.5028534  17.8024693  90.5878983 161.0971069  18.8797493
  89.9982071 159.5357208  17.3177967  90.1764221 159.1654358  16.3951721
  88.9251709 158.9119110  18.0805626  88.3694229 159.6273651  18.6866646
  87.8480148 158.3386383  17.1354504  87.0885315 157.8442688  17.7411480
  87.4565811 159.2189331  16.6255646  88.3198776 157.4904022  16.0187130
  88.4071503 157.8237610  14.7153978  88.2338638 158.7776794  14.2395687
  88.9146500 156.7560883  14.0165138  89.0216217 156.8124695  13.0137777
  89.0337143 155.5786743  14.7385731  89.4946442 154.2744904  14.4927912
  89.7869644 154.0652466  13.4743757  89.6020813 153.3475494  15.5546188
  89.9937744 152.3904266  15.2433481  89.1618271 153.7156525  16.8328114
  89.2167130 152.9815979  17.6230907  88.7549591 155.0348816  17.0737820
  88.4290085 155.2630615  18.0778160  88.6789703 156.0413971  16.0737953
  89.4904251 157.7625122  18.9545612  90.4779816 157.1239624  18.6156425
  88.8268738 157.4401245  20.0268898  88.2640839 158.2173004  20.3421021
  89.2809525 156.3271942  20.9436741  89.6387939 155.4888458  20.3460026
  90.4056778 156.7506866  21.8905945  91.3324051 156.8504028  21.3254967
  90.3739166 158.0704956  22.7252598  89.6332550 158.0517273  23.5247440
  91.3796844 158.1910095  23.1277657  90.1016083 158.9530029  22.1463585
  90.6287613 155.7018280  22.8102703  91.4653854 155.8511047  23.2567978
  87.9891434 155.9121704  21.6724319  87.2621078 156.7701263  22.1706963
  87.6483612 154.6334229  21.5749588  88.3846893 153.9856262  21.3335667
  86.3460007 154.0922852  21.7871895  85.6484528 154.6321411  21.1467991
  86.2250290 152.6056366  21.3727322  86.9251404 152.0040131  21.9523849
  84.8592834 152.1190338  21.6379948  84.0943298 152.7263947  21.1542034
  84.6922455 151.0695343  21.3956070  84.6614990 152.1900024  22.7075481
  86.5675888 152.3170624  19.8881397  86.0526657 153.0211639  19.2345314
  87.6301346 152.5485840  19.8140888  86.4796219 150.8687592  19.3631306
  85.4434204 150.5952301  19.1641941  87.0360336 150.8082123  18.4278049
  86.9991760 150.2541809  20.0982933  85.9336395 154.3528137  23.2700481
  86.6153946 153.9860229  24.2599697  84.6656647 154.8110504  23.4088421
  84.1739044 155.1755981  22.6054859  84.0968246 155.1999969  24.7532597
  84.8719788 155.3683167  25.5008602  83.3336487 156.5482330  24.5937386
  82.4760666 156.3823853  23.9417019  83.0130844 156.8591003  25.5880756
  83.9618454 157.3473816  24.2002335  83.1635895 154.0391846  25.2061634
  82.4035568 153.4840393  24.3619919  83.2788467 153.6441498  26.5028172
  84.0629196 154.0122681  27.0222588  82.4135361 152.6376953  27.1432400
  81.5252457 152.5625153  26.5160332  83.2046890 151.3543396  27.1096745
  84.2472839 151.6083069  27.3009586  82.8760910 150.7765808  27.9735699
  83.2026443 150.4506531  25.8776283  82.1740112 150.1806183  25.6386719
  83.6308441 151.0204620  25.0529766  84.0180588 149.1810455  26.0367775
  85.2326736 149.1964569  25.8978882  83.3808136 148.0683289  26.4180641
  83.9679794 147.3369141  26.7927151  82.4037170 148.1936646  26.6409512
  81.8672409 153.1154785  28.4586277  82.6039963 153.7881012  29.2365170
  80.6932907 152.5628510  28.8740082  80.2252655 151.9770966  28.1972885
  80.0098495 152.8708191  30.1279602  80.0165482 153.9397125  30.3413200
  78.4983368 152.7547607  29.8487797  78.1881714 153.3853607  29.0155697
  78.2216721 151.7209167  29.6421127  77.5909729 153.2425537  31.3921585
  76.3918762 152.6971741  31.1693974  80.5019302 152.1263428  31.3595810
  80.6633453 150.9179077  31.2845345  80.5944290 152.8087616  32.5569878
  80.4369965 153.8028259  32.4724503  81.4766312 152.4175873  33.6516380
  82.3655014 151.9087372  33.2786980  81.8985672 153.6880035  34.3260193
  82.4219666 154.3206024  33.6090965  80.9954834 154.1872711  34.6771278
  82.8647079 153.3950806  35.4417191  82.2347260 152.9103241  36.1875381
  83.6793671 152.7562408  35.1006737  83.3889771 154.6891632  36.0140190
  82.5969467 155.3225098  36.4136124  83.8777466 154.4706116  36.9634590
  84.3862610 155.3502655  35.1243477  84.3984833 155.1007538  34.1457291
  85.4158859 156.1219482  35.4244385  85.8841019 156.3735352  36.6335182
  85.4205627 155.9531403  37.4262886  86.7654343 156.8277893  36.8259163
  86.2075119 156.6664734  34.5385590  86.0088654 156.6264038  33.5490952
  86.9064255 157.3714905  34.7244530  80.8576126 151.3199158  34.5392723
  81.5014954 150.4458160  35.0901756  79.4603500 151.2094574  34.4879494
  78.9582062 151.9410095  34.0054779  78.6962280 150.2641449  35.3173599
  79.3519669 149.8627777  36.0900192  77.4252396 150.9404602  35.9608231
  77.0486908 151.6668396  35.2406273  76.2848969 150.0194702  36.3917007
  76.5157089 149.1170197  36.9577446  75.4801559 150.5531769  36.8973312
  75.7935715 149.5971375  35.5151520  77.8035202 151.8597260  37.2235107
  78.2447891 152.7575226  36.7906799  76.8938980 152.2283325  37.6976662
  78.6463394 151.1624603  38.2732773  79.6818848 150.9567261  38.0023041
  78.7639389 151.7539520  39.1812477  78.2190170 150.1767426  38.4573021
  78.2713547 149.0271759  34.4863396  78.2070847 147.9177704  35.0935287
  77.9385681 149.1725006  33.1859627  77.9246902 150.1037445  32.7952232
  77.4870300 148.0317688  32.3357849  77.4386826 147.1255951  32.9396248
  76.0555420 148.2507172  31.8593769  75.5504227 147.3117828  31.6327744
  75.5413284 148.5733185  32.7647057  76.0161743 149.5542755  30.5481434
  74.9517975 150.1698761  31.0706673  78.3493729 147.6669617  31.0934200
  78.1827850 146.5764160  30.5110531  79.3430710 148.4572449  30.7527008
  79.6055069 149.2199554  31.3605824  80.2514114 148.2002869  29.6350880
  81.2805252 148.5386353  29.7556801  80.3850250 147.1199646  29.5789223
  79.7840805 148.6160278  28.2234249  80.4731674 148.3665771  27.2472973
  78.5754395 149.2267303  28.0711880  77.9772949 149.3503418  28.8755779
  77.9795532 149.6222229  26.7395554  78.0145416 148.7954102  26.0301456
  76.5717010 150.0665131  27.0150757  76.0163345 149.3638916  27.6363640
  76.5578918 151.0179596  27.5467319  75.7477341 150.2898102  25.7212715
  75.6375504 149.4253998  24.8333569  75.1575394 151.4424744  25.5350838
  74.7323227 151.5141602  24.6217632  75.3334885 152.1764832  26.2061939
  78.7600327 150.8013763  26.1193275  79.1776810 151.7486115  26.8197327
  79.0551987 150.7099304  24.8280869  78.9476700 149.8102264  24.3819008
  79.6397324 151.7460022  23.9485416  80.5725403 152.0879669  24.3969212
  79.9866943 151.0817413  22.6015072  80.9131699 150.5215149  22.7275581
  79.2060089 150.4267883  22.2146473  80.2403412 151.9838562  21.4542255
  79.4802094 152.1462250  20.2427025  80.1257248 153.0489807  19.5137386
  79.7173538 153.5108948  18.6270256  81.2570343 153.4536591  20.1781254
  81.8998871 154.1577606  19.8448544  81.3961411 152.6977234  21.3483486
  82.2474365 152.6645508  22.0121269  78.7720718 153.0255280  23.7853336
  77.5436478 152.9662628  23.6324558  79.4349823 154.1829834  23.8236523
  80.4387894 154.1010284  23.7477283  78.8830338 155.5171661  23.9472122
  77.8094711 155.4484863  23.7715721  79.0823746 156.0416260  25.3972721
  80.1377945 156.1839600  25.6295071  78.5867538 156.9989166  25.5586700
  78.5233154 155.1621094  26.5395679  79.1405258 154.2721558  26.6625347
  78.5281143 155.7210236  27.4753532  76.8475494 154.6327972  26.4031525
  75.9196320 156.2087097  26.4613762  75.8546143 156.6588745  25.4708080
  74.9306030 155.9702759  26.8526154  76.4102173 156.8753815  27.1705761
  79.5308151 156.5260162  22.9859447  79.6201553 157.6939087  23.3307247
  80.0021439 156.0726776  21.7959194  79.8747330 155.0999451  21.5558319
  80.7226410 156.9424896  20.8097000  80.5348434 156.6130981  19.7877731
  80.3881912 157.9782410  20.8686428  82.1884308 156.9433289  21.2329865
  82.7333069 155.8894348  21.4917717  82.8375092 158.1391907  21.1086121
  82.2333603 158.9010773  20.8354149  84.3079681 158.2559662  21.2699947
  84.7665710 157.3942108  21.7549286  84.9339981 158.1744385  19.8374004
  84.7470551 159.0776367  19.2565651  86.0174713 158.1653290  19.9561844
  84.6419601 157.0267181  18.9543533  85.4371948 155.9696655  18.7722244
  86.4004135 155.8057098  19.2323570  84.8316879 154.9829865  18.0728226
  85.3696899 154.1476898  17.8913879  83.4847336 155.2577667  17.8463688
  82.3811417 154.5742340  17.3918724  82.4612808 153.5082245  17.2382145
  81.2031097 155.2961731  17.1188641  80.3460846 154.8270874  16.6585617
  81.1123276 156.6702271  17.3514442  80.1458435 157.1488647  17.2947388
  82.2025528 157.3702545  17.8973484  82.2027130 158.4367523  18.0676289
  83.4091187 156.6620636  18.1424942  84.7773056 159.5252380  22.0512218
  84.1082687 160.5951538  22.0083847  85.8956375 159.4092712  22.7333450
  86.3820877 158.5251007  22.7745380  86.7226868 160.5754700  23.1614742
  86.1153183 161.4291840  23.4621315  87.6055527 160.1983795  24.3375320
  86.9906387 159.6792603  25.0727253  88.3371658 159.5092010  23.9157810
  88.3226776 161.4027100  25.0677967  88.9645386 161.9822235  24.4042549
  87.5679550 162.0564117  25.5050373  89.1986694 160.9950714  26.1990376
  88.6250687 160.4806366  26.9700375  89.9094772 160.2835236  25.7788277
  89.9863892 162.1322632  26.8331604  90.2842255 162.7747803  26.0045662
  89.3548889 162.8274078  27.3864002  91.1224747 161.7036438  27.6761017
  91.7372894 161.1071320  27.1410599  91.7818832 162.4011383  27.9904232
  90.7569809 161.1497192  28.4374657  87.6191864 161.0154266  21.9750595
  88.1053314 160.1125946  21.2416840  87.8754654 162.3129425  21.8642883
  87.4083710 163.0314331  22.3987789  88.7170944 162.9232635  20.8531036
  89.0282440 162.0768127  20.2408791  87.8526840 163.7599182  19.9373379
  87.2546158 164.5116577  20.4524269  88.4965286 164.2797394  19.2278614
  86.9255142 162.9732513  18.9981956  87.4114914 162.5648651  17.7163544
  88.3521423 162.8646698  17.2785225  86.5164108 161.8551636  16.8965034
  86.8194504 161.5901337  15.8943405  85.2217255 161.5942535  17.2945347
  84.5118790 161.0797577  16.6638050  84.7361374 162.0129547  18.5391388
  83.7030716 161.7860565  18.7575607  85.6056290 162.6804810  19.4250050
  85.1890640 163.1120148  20.3231392  89.8197479 163.6743164  21.4664631
  89.5946884 164.3822021  22.4314556  91.0328979 163.6156006  20.9300156
  91.1105347 163.0288696  20.1115894  92.2948990 164.3101501  21.3209572
  91.9430618 165.1569214  21.9102612  93.1169128 163.3559265  22.2471218
  94.0974121 163.8053131  22.4044933  92.4022903 163.1437378  23.5500603
  91.5167694 162.5199127  23.4284897  93.0640259 162.5622864  24.1920166
  92.0879974 164.1438141  23.8487053  93.4096451 162.1052856  21.6638260
  94.0883636 162.1472168  20.9861946  93.0583801 164.7510071  20.0335960
  93.1342392 163.9592590  19.1091766  93.4798126 165.9794617  20.0630302
  93.4395828 166.4619293  20.9494324  94.0702591 166.6916656  18.9596539
  93.3032684 166.6553040  18.1860218  94.2921829 168.1365051  19.3477249
  95.1343307 168.1788177  20.0384445  94.4979630 168.6264191  18.3960190
  93.3790131 168.6314545  19.6782799  95.4400711 166.0689087  18.5848885
  96.2060699 165.6652527  19.4723473  95.8692551 166.1096649  17.3335686
  95.2045746 166.3854370  16.6248741  97.2491379 165.7081604  16.9221497
  97.6972504 164.9961395  17.6152039  97.3093719 165.1137085  15.5219784
  98.3387299 164.8305664  15.3020658  96.4972763 163.8674927  15.3800278
  95.4176025 164.0116425  15.4203873  96.6277161 163.3635559  14.4223614
  96.6263504 163.1651611  16.2035389  96.7981110 165.9638062  14.5285854
  95.9018402 166.2170258  14.7613468  98.2734680 166.7574615  17.0281010
  99.4675827 166.4242706  17.1461105  97.8383942 168.0490723  16.9251080
  96.8820114 168.2860565  16.7031059  98.7329102 169.2556763  17.0399513
  99.7892075 168.9867706  17.0366821  98.5569153 170.1075745  15.7845621
  97.4872971 170.0904236  15.5754786  98.8781967 171.1371918  15.9418793
  99.1922531 169.4739380  14.5446615 100.2335434 169.3128510  14.8237076
  98.7547531 168.4900970  14.3750496  99.1931763 170.2721558  13.2265463
  99.5724869 171.2780457  13.4066000  99.7963867 169.7992554  12.4515619
  97.7236938 170.2952881  12.7292213  97.3221893 169.2835083  12.6725941
  97.1082306 170.8508301  13.4368067  97.5988846 170.9313507  11.4163198
  97.9844742 170.4302216  10.6287327  96.6115112 171.0805664  11.2649364
  98.0092697 171.8537140  11.3856754  98.6081161 170.0291290  18.3676090
  97.5122147 170.1584320  18.9666023  99.7317734 170.6226196  18.7433834
 100.5264053 170.4846191  18.1354179  99.9070053 171.3375702  20.0195522
  99.5394897 170.5769043  20.7083378 101.3347397 171.5547638  20.3574657
 101.5616760 171.7060089  21.4127960 101.9747086 170.7216187  20.0669079
 102.0051117 172.7724152  19.7172794 101.8251953 172.6440735  18.6499176
 101.5116806 173.6639252  20.1043758 103.5478973 172.8059998  19.9990540
 103.7360382 172.6117401  21.0549736 103.9820938 172.0263977  19.3731117
 104.1198883 174.1660614  19.6175327 103.4526672 174.9335022  20.0098858
 105.0919724 174.2460480  20.1041107 104.3032837 174.4363708  18.1909294
 103.4014359 174.3838501  17.7392483 104.5456543 175.4033051  18.0284290
 104.9661179 173.8443756  17.7110386  99.1163559 172.6399384  20.2654285
  98.8939514 172.9485016  21.4266243  98.7367401 173.3805389  19.2558804
  98.9649124 173.0406036  18.3325806  97.9957962 174.6855011  19.3694572
  98.0920792 175.0292816  20.3993320  98.6557083 175.7715149  18.4322929
  98.1816483 176.7481079  18.5304852  99.6394196 175.8452454  18.8959351
  98.8592453 175.4829102  16.9703674  99.0329819 174.2796631  16.6155891
  98.9739990 176.4965515  16.2336807  96.4568634 174.6274414  19.1342201
  95.6937332 175.6308594  19.2516727  95.9616852 173.4340210  18.9023476
  96.5587158 172.6248169  18.8082962  94.5215759 173.2465668  18.5998058
  94.1409149 173.9597473  17.8686562  94.2493286 171.9092255  17.8615875
  94.5078659 171.0587158  18.4923592  93.1946182 171.9312134  17.5873508
  95.0516205 171.7754211  16.5323944  94.5901031 172.4692688  15.8297625
  96.0982208 171.9501953  16.7817421  94.9215546 170.0568542  15.9012709
  93.1792221 169.8861389  15.2830181  93.0880127 169.9032135  14.1969748
  92.6577759 168.9908752  15.6217337  92.6395493 170.7765961  15.6054277
  93.6748962 173.2474060  19.8370590  93.9434433 172.4299927  20.7471886
  92.6600037 174.0332031  19.8389797  92.4684677 174.5571289  18.9970150
  91.7514114 174.2921143  20.9555492  92.0044327 173.5973511  21.7564144
  91.8876419 175.7104034  21.5982952  92.9315720 175.8809814  21.8613510
  91.5013657 176.3882294  20.8370819  91.0907440 175.8529205  22.7615566
  91.5679474 176.1626892  23.5348072  90.3153610 174.0368195  20.4863110
  89.9211807 174.7157593  19.4764156  89.5703583 173.1317444  21.1077213
  88.1954117 172.8318787  20.7854519  88.1238632 172.4792175  19.7565632
  87.5388184 173.6870270  20.9457664  87.7743301 171.7481537  21.7930660
  88.1725769 170.8334503  21.3539486  86.6909943 171.7559967  21.9131832
  88.6530457 171.9467163  23.0226784  88.9098587 170.9873505  23.4718647
  88.2260742 172.7157898  23.6663666  89.9672699 172.4965973  22.4046612
  90.3344421 173.2656860  23.0842228  91.0949783 171.4325714  22.3181782
  91.2339706 170.7860413  21.2863121  91.8693390 171.2675018  23.3550854
  91.7294083 171.8628845  24.1588478  92.8150711 170.0836182  23.3506718
  93.5314560 170.1756287  22.5343227  93.6023712 170.2107391  24.6605244
  94.0959396 171.1813507  24.7095127  92.9088287 170.4095001  25.4775944
  94.6054688 169.1124725  24.9770718  94.8920898 169.2832184  26.0147552
  94.0665436 168.1677094  24.9056091  95.8725357 169.0695496  24.1695271
  96.0340500 169.7123718  23.1182957  96.8367767 168.3318481  24.7155132
  97.6502838 168.2727051  24.1198540  96.7154236 167.7232513  25.5123749
  92.0909424 168.7050476  23.2090282  92.6912384 167.7650146  22.5881691
  90.9227295 168.5601501  23.8382530  90.5100784 169.3596802  24.2971287
  90.1049423 167.3077545  23.9876137  90.3146439 166.5993805  23.1861553
  90.3958435 166.6505280  25.3693504  89.7924423 165.7452393  25.4362049
  91.4468613 166.3617706  25.3602962  90.1732635 167.5801086  26.6144009
  90.2468872 168.6065369  26.2550602  89.1648178 167.4316406  27.0005398
  91.0661621 167.2723694  27.8223629  90.6665039 167.7927399  28.6927586
  91.0796814 166.2008820  28.0219116  92.5379639 167.8461456  27.6543179
  92.9592361 167.4526825  26.7292137  92.4705811 168.9330444  27.6073360
  93.4893112 167.4634705  28.7154312  93.5539093 166.4838715  28.9527740
  94.4013596 167.8217316  28.4706650  93.2598114 167.8950653  29.5992603
  88.6193848 167.6194763  23.9590492  88.1612320 168.6826630  24.3303032
  87.7965546 166.7360687  23.4104710  88.2591171 165.9157562  23.0454922
  86.3191986 166.7426453  23.5074158  86.0369339 167.1650085  24.4718056
  85.7291107 167.6824493  22.4291058  84.6965408 167.8325348  22.7443447
  86.1881180 168.6710815  22.4308567  85.6516953 167.0615997  21.0132236
  86.7748642 167.1697540  20.1900749  87.6543808 167.6631927  20.5765667
  86.6981735 166.7463226  18.8614502  87.4886551 166.8820038  18.1381702
  85.5297546 166.1582031  18.3655586  85.5307999 165.8293762  17.3368340
  84.4088287 166.0551758  19.1527977  83.5113983 165.5979309  18.7629700
  84.4463272 166.5225525  20.4642811  83.5291977 166.5897980  21.0306263
  85.7985764 165.2865143  23.4916019  86.5342102 164.3426514  23.2666531
  84.4931412 165.1122589  23.6887341  83.9825211 165.9468994  23.9391975
  83.7743759 163.8627625  23.6984501  84.4929886 163.1080780  23.3788338
  83.3212738 163.4328461  25.0469856  82.7538605 164.2412567  25.5080872
  82.6943893 162.5480194  24.9365807  84.3688126 163.0895233  26.0513668
  85.0279236 163.9112396  26.8446178  85.0129242 164.9859314  26.7387314
  85.7641068 163.3167572  27.8073025  86.4565353 163.8107910  28.3518906
  85.6132050 161.9490509  27.6920776  86.1792984 160.8983459  28.4435749
  86.8300018 161.0985565  29.2819614  85.9306641 159.5126038  27.9482727
  86.3481750 158.6266937  28.4035397  85.1647949 159.3115082  26.7636986
  84.9752121 158.3165283  26.3888893  84.6309662 160.4296570  26.0701122
  84.1179199 160.1686707  25.1562901  84.8920441 161.7978668  26.4700813
  82.5849991 163.9287262  22.7415466  81.7015762 164.7404938  22.9293499
  82.5872726 163.0483398  21.7485218  83.3371353 162.3754730  21.8197365
  81.6465912 162.8838348  20.6774998  81.0005341 163.7614136  20.6535683
  82.1850128 162.6238861  19.7661114  80.7808151 161.6926422  21.0558205
  80.9140854 160.5710144  20.5257835  79.8302231 161.9031830  22.0055122
  79.7380447 162.8628845  22.3064537  79.0343018 160.7655792  22.4736004
  79.6379776 159.8722534  22.6337681  78.6673889 161.0171356  23.9458447
  77.8997574 161.7908173  23.9617996  78.3084641 160.1005859  24.4140568
  79.7694397 161.5773926  24.9119091  80.1419754 162.5145874  24.4983978
  79.0399399 161.8735962  26.2319508  79.0078735 161.0437164  26.9379101
  79.6839905 162.5949249  26.7349243  78.0226059 162.2460938  26.1120720
  80.9083633 160.5643768  25.0932903  81.5848770 160.4618683  24.2448082
  81.4895782 160.8755951  25.9612923  80.6292419 159.5189209  25.2244644
  77.7399063 160.4109802  21.6187477  77.1884003 161.3512268  21.0539474
  77.2787704 159.1540833  21.5457554  77.7306290 158.3972778  22.0388737
  76.0820007 158.8243103  20.7674885  76.1640320 159.2879486  19.7844296
  76.1924286 157.3124237  20.3638210  75.2658615 156.9395752  19.9272919
  77.2225876 157.1329346  19.2702198  78.1915741 157.5300293  19.5727119
  77.3835068 156.0796509  19.0404739  76.9152832 157.5716705  18.3209171
  76.6031265 156.5077209  21.4166794  76.7584000 155.6074982  21.1215706
  74.7567291 159.1596069  21.4350281  74.3409042 158.5514984  22.3786583
  73.9683304 160.0029449  20.7229843  74.3824692 160.4317932  19.9077034
  72.6368332 160.4892578  21.2153034  72.7355042 160.8970490  22.2213192
  72.1688309 161.7432251  20.4982834  71.3378296 162.1673279  21.0619049
  73.0651779 162.3634186  20.4932289  71.6788177 161.3257446  19.0834064
  72.3375320 161.8163605  18.3668251  71.6670837 160.2491302  18.9134617
  70.2847290 161.8124237  18.7539730  70.1801910 162.8512573  19.0670204
  70.1507111 161.7427368  17.6744881  69.2060547 161.0373383  19.4403954
  68.9092484 161.1954041  20.3927708  68.4119034 160.2214050  18.7205048
  68.5856171 159.7490387  17.5456257  69.1681824 160.1934509  16.8504829
  67.7906189 159.2293396  17.2021294  67.2526703 159.8928680  19.2320728
  66.9552155 160.4641418  20.0100555  66.6774216 159.2990570  18.6519108
  71.5334167 159.4134979  21.2501984  70.4536591 159.6868591  21.7056828
  71.8595276 158.1654358  20.7630501  72.8066177 158.1552429  20.4123001
  71.0424347 156.9610901  20.6516094  70.0309830 157.2158051  20.3350754
  71.6012344 156.0160522  19.5872936  71.2051849 155.0019226  19.5342731
  71.3160782 156.4044647  18.6095791  73.0066299 155.9327240  19.7264595
  73.3525467 155.5064850  18.9388962  71.0679016 156.1607819  21.9644012
  70.0284042 155.7320862  22.4212608  72.2603149 155.9073181  22.5204239
  73.0883331 156.1317902  21.9874172  72.5045166 155.2873993  23.8408432
  71.7610855 154.4982300  23.9531021  73.9620361 154.7535400  23.8447018
  74.6966095 155.5337067  23.6451550  74.1762085 154.1326294  24.7145882
  74.1021271 154.1351929  22.9580612  72.3003159 156.2957764  25.0646267
  72.4583359 155.8415375  26.1551609  71.9481049 157.5735779  24.7962379
  71.6645508 157.8477478  23.8664379  71.8397141 158.5269470  25.8848534
  72.3590393 158.1806946  26.7784481  72.4588470 159.9877167  25.4937439
  71.9529572 160.3020935  24.5808678  72.0994644 160.7323608  26.2039814
  73.9860306 160.1784821  25.4016743  74.4174194 159.4166107  24.7524109
  74.3931885 161.4716644  24.6510143  73.8749847 162.3294067  25.0797787
  75.4576645 161.6950531  24.7223492  74.1770935 161.2772064  23.6004963
  74.7677917 160.2287750  26.6525459  74.3717804 159.4229126  27.2704887
  75.7908630 160.0485840  26.3224659  74.7653809 161.1592865  27.2202244
  70.3431091 158.7386932  26.3890610  69.4264297 158.7978821  25.5477066
  70.1563339 158.7954102  27.7441292  70.9945831 158.7549438  28.3060856
  68.8318100 158.8923798  28.3913441  68.0533981 159.1448059  27.6712952
  68.3327179 157.5781555  29.1004238  68.2638016 156.7546539  28.3896580
  69.1764908 157.3454590  29.7500305  67.0237045 157.7086639  29.8947678
  67.1168213 158.2867889  30.8141079  65.8239899 158.0064850  28.9652634
  65.9015961 157.3642578  28.0879860  64.8616180 157.8040314  29.4353123
  65.8184814 159.0501404  28.6508694  66.6955338 156.3159943  30.4902325
  67.3996506 156.0594940  31.2817726  65.7079849 156.3604736  30.9494362
  66.5761490 155.5240936  29.7508144  68.8287048 160.1913757  29.3240604
  69.3931808 160.2567139  30.4256420  68.1183548 161.2173920  28.9130077
  67.5511322 161.3890686  27.5854321  66.5062103 161.0826263  27.5371284
  68.1490479 160.8609009  26.8427105  67.7659836 162.8675385  27.2854977
  67.0985947 163.1808319  26.4826622  68.7767944 163.1335907  26.9763470
  67.3006210 163.4252014  28.6493683  66.2140274 163.4030762  28.5661564
  67.6923904 164.4213867  28.8548870  67.8170319 162.4718781  29.6769447
  68.7046814 162.9678955  30.0695705  66.9142838 162.3914490  30.9168777
  66.0344849 163.2762146  31.0963326  67.2258224 161.4586182  31.8028927
  68.0281448 160.8771210  31.6073551  66.7460022 161.2856140  33.1780701
  65.6659698 161.4313354  33.1979752  67.2341156 159.9008942  33.6356430
  66.8195801 159.1538086  32.9588051  68.3220749 159.8891144  33.7011833
  66.6084213 159.6104584  35.0452728  67.0264435 160.3367615  35.7423019
  65.5487518 159.8440704  34.9421768  66.8807983 158.3044586  35.6753578
  67.9120255 157.9985504  35.4990349  66.7065887 158.3640900  36.7496910
  65.9817886 157.2242584  35.1234322  65.8304977 157.3704071  34.1355782
  65.6800613 156.1537476  35.7491531  66.0798950 155.8690186  36.9070778
  66.7049332 156.4640808  37.4318008  65.6473007 155.1571503  37.4782143
  64.9830322 155.2389526  35.1259117  64.3874435 155.4901581  34.3498535
  64.6105652 154.4535065  35.6401482  67.2453690 162.3873291  34.0878563
  66.4329147 162.9144745  34.8422623  68.4679642 162.7238312  34.0080948
