Cpptraj Generated Restart                                                       
 6222  4.0000001E-01
  89.9506683 181.0478821  24.4148788  90.9217300 181.0693817  24.1379757
  89.9554138 180.1686249  24.9118633  89.7299652 181.7623901  25.0937614
  88.9791794 180.9083405  23.2136459  87.9641266 180.8147736  23.5996780
  88.9887009 182.2163391  22.3821259  89.9815674 182.4119415  21.9770832
  88.2915115 182.0592041  21.5591164  88.4284897 183.4608002  23.1887569
  87.3394775 183.4804993  23.1465931  88.5941849 183.3395386  24.2592430
  89.0412140 185.0567932  22.6776733  88.1040039 185.5457153  21.1311436
  87.1487885 185.9028015  21.5160427  88.5791779 186.3576508  20.5806217
  87.8407822 184.7497711  20.4345245  89.3166046 179.6133575  22.3760948
  90.4560394 179.0769043  22.3303452  88.2422256 179.0738220  21.7589645
  87.3947220 179.6230316  21.7441616  88.3211288 177.9568176  20.7561359
  88.9374695 177.1560364  21.1647816  86.9316559 177.3208618  20.5753593
  86.1302338 178.0595551  20.5630035  86.7957535 176.5260162  19.2790260
  87.5301056 175.7217712  19.2342911  85.8554535 175.9757385  19.2453842
  86.8796234 177.1666565  18.4011593  86.6826935 176.3927002  21.7814884
  85.8261795 175.7548523  21.5632381  87.5514679 175.7384186  21.8538170
  86.2634201 177.0658875  23.1009560  85.3467941 177.6347961  22.9452782
  86.0156021 176.3055573  23.8416309  87.0571594 177.6731567  23.5360394
  89.0595322 178.4930573  19.4658947  88.9116669 179.6609344  19.1126328
  89.6670914 177.5980225  18.6977673  89.7602005 176.6413879  19.0080566
  90.3918076 177.9358215  17.4146652  89.9159470 178.7827301  16.9202747
  91.8950348 178.3121948  17.6445484  92.3824158 178.9301147  16.8903999
  91.8583374 179.0788116  18.4185333  92.8840103 177.2369995  18.0801544
  92.6387024 176.0760956  17.8534184  93.9441376 177.6087036  18.7518482
  94.6234131 176.9180145  19.0375690  94.2019196 178.5841980  18.7969513
  90.1964035 176.8184814  16.4062672  90.4990234 177.0824127  15.2419405
  89.5785065 175.6625671  16.6961250  89.5170975 175.4317780  17.6774864
  89.0570755 174.7506409  15.6514864  89.9013214 174.2969055  15.1323690
  88.1595001 173.6747284  16.2236786  88.7253647 173.2117767  17.0321255
  87.2979889 174.1811523  16.6589127  87.6763916 172.6721191  15.2660227
  88.5560455 171.7383881  14.6426420  89.6282654 171.8412476  14.7210913
  88.0030518 170.6130219  13.9143324  88.5968857 169.9063873  13.3535995
  86.6198883 170.3673553  13.8675003  86.1455383 169.5178528  13.3987274
  85.7660751 171.3328400  14.5144024  84.6930008 171.2114868  14.5283308
  86.2727585 172.5056458  15.1601810  85.6369934 173.2129517  15.6719675
  88.1500015 175.5033569  14.6284504  87.2830048 176.2616425  15.0095873
  88.3637390 175.3696899  13.3365555  88.9866028 174.6210785  13.0687389
  87.4903641 175.9798431  12.3050013  87.2223434 176.9970093  12.5907440
  88.2347412 176.0636139  10.9914389  89.1605377 176.6187286  11.1426058
  88.6322250 175.1010895  10.6694946  87.4265137 176.6427612   9.8292522
  86.3875122 177.2370911  10.1135321  87.8862305 176.4483643   8.6439495
  86.1823044 175.2506561  12.2170668  86.0647583 174.2480164  11.5141773
  85.1755981 175.7061768  12.9877768  85.3395157 176.5260010  13.5544300
  83.8736343 175.0526123  13.1410179  84.0582047 174.0961914  13.6302147
  82.9928589 175.7935638  14.1808653  82.0814209 175.2241364  14.3628912
  83.6275253 175.9564819  15.5475321  84.4005051 176.7212219  15.6235886
  82.8578568 176.1429291  16.2964993  84.0736847 174.9823608  15.7477818
  82.6870270 177.1732178  13.8030024  82.0032501 177.5194550  14.3810825
  83.0057678 174.8007050  11.8649492  81.9235077 174.2368011  11.9070873
  83.4409790 175.2306519  10.6781168  84.3551712 175.6548615  10.6116190
  82.9183502 174.7533722   9.4315701  81.8405838 174.6075287   9.5040751
  83.1126938 175.9099426   8.3545456  82.4828796 175.5757141   7.5300870
  82.7833557 176.8976593   8.6770954  84.4277267 175.9993286   7.9770384
  84.8161850 176.7274933   8.4674101  83.4459839 173.4083862   8.8955908
  82.8681946 172.8021545   7.9893842  84.5741806 172.8892670   9.4458084
  85.0719299 173.5330963  10.0439949  85.2146683 171.5915070   9.0551977
  85.3867264 171.5454559   7.9798460  86.5629730 171.4755096   9.7081137
  86.4437027 171.6986237  10.7683487  87.0800247 170.5231781   9.5905485
  87.5929794 172.4779205   9.1892328  87.2225189 173.4960327   9.3088408
  88.8036118 172.3870544  10.1190872  89.2385025 171.4413452   9.7956429
  89.5459824 173.1780396  10.0126572  88.5325851 172.3522339  11.1742802
  88.1198120 172.3171082   7.7584271  87.2773209 172.1564484   7.0857382
  88.5256729 173.2503510   7.3680005  88.8054733 171.4697723   7.7587337
  84.3818130 170.2994385   9.2266769  84.7160797 169.2968750   8.5465298
  83.4565735 170.2136383  10.1649132  83.5199585 170.8616028  11.4821596
  82.9992905 171.8167419  11.4133205  84.5772476 170.9988708  11.7088623
  82.8079071 169.9779510  12.4573650  82.2334747 170.6416321  13.1036386
  83.4930191 169.3360596  13.0111628  81.8854370 169.0816956  11.6006117
  80.9772339 169.6758270  11.4992466  81.6476746 168.1068115  12.0262737
  82.5114822 169.0557556  10.1860943  83.1563187 168.1834564  10.0793486
  81.5079575 169.0733185   9.0048218  81.2038422 168.0022583   8.4070644
  80.9490280 170.2383423   8.6787100  81.2835617 171.1324768   9.0084000
  79.7457047 170.3228455   7.8027291  79.1163940 169.4590607   8.0170927
  79.0228424 171.6540375   7.9270306  78.0625000 171.5804749   7.4167151
  78.7252808 172.1082001   9.3327150  79.6695862 172.2676239   9.8532553
  78.0056992 172.9243469   9.3975363  78.2216949 171.3168335   9.8879213
  79.7696075 172.7257080   7.4167452  79.1058655 173.3792419   7.1845160
  80.0759125 170.1528015   6.2892380  79.1787338 169.8956146   5.4716554
  81.3308411 170.2363892   5.9122529  82.0069733 170.6129303   6.5612345
  81.8891296 169.8343506   4.6317677  81.1427078 170.2344971   3.9455924
  83.1879959 170.5272522   4.4268246  83.6630020 170.2136993   3.4972265
  83.0372162 171.6061707   4.3908443  83.9925156 170.3527374   5.5346718
  84.4646072 171.1515350   5.7809072  81.9705429 168.3089447   4.5440831
  81.9812546 167.8284760   3.3580735  81.9447708 167.5284271   5.6377873
  81.8752670 168.0065613   6.5247188  82.0341797 166.0548401   5.6399641
  82.2789841 165.8255768   6.6770768  80.6279984 165.4749146   5.3662610
  80.3094940 165.9056244   4.4169774  80.7488403 164.3926544   5.3192973
  79.6360397 165.7297974   6.4399414  79.7017593 165.1970215   7.7125030
  78.6960526 165.7784271   8.3634691  78.5708542 165.6939545   9.4328566
  78.0020447 166.6458282   7.5819793  77.1726379 167.1029053   7.9330630
  78.6440964 166.6759796   6.3472347  78.3036194 167.1918182   5.4615731
  83.1532059 165.4497223   4.8193579  83.0008545 164.4410095   4.1265440
  84.4208679 166.0047150   4.9259849  84.5323257 166.8148346   5.5187635
  85.6507721 165.5846100   4.2328610  85.5444946 165.7821350   3.1661875
  86.8112259 166.4312134   4.8622837  86.7862930 166.2893066   5.9427195
  87.7544250 166.0637512   4.4579997  86.6315384 167.9569550   4.4599419
  87.0379562 167.9146423   3.4494283  85.5697250 168.1721191   4.3401041
  87.3485565 169.2294769   5.5860910  89.0601730 169.1032410   5.0976219
  89.2045059 168.8970032   4.0370884  89.6477356 169.9385834   5.4784822
  89.4108124 168.2126007   5.6190820  85.9266586 164.0964050   4.3067369
  86.4806976 163.5000610   3.4019287  85.5620270 163.4880829   5.4185843
  85.0756760 164.0252838   6.1221313  85.9427109 162.1201477   5.7236342
  87.0322952 162.1368866   5.7488289  85.6793213 161.8473511   7.1712971
  85.9777908 160.8282776   7.4173012  86.2209702 162.5197754   7.8365507
  84.1803436 161.8971558   7.4533978  83.5806656 163.1345520   7.7775288
  84.1078644 164.0725555   7.8702025  82.2044754 163.1923523   7.9499841
  81.8479080 164.1383362   8.3299513  81.3823090 162.0762939   7.7406359
  80.0843811 162.1538544   7.9741497  79.8633194 163.0861816   8.0334330
  81.9714279 160.8190460   7.5057306  81.3145065 159.9656830   7.4244432
  83.4197006 160.7106934   7.3619652  83.8317261 159.7208252   7.2324362
  85.2289047 161.0689545   4.9301591  85.7090912 159.9329529   4.9036441
  84.0601120 161.3501282   4.2122092  83.7944489 162.3132324   4.3604269
  83.3520584 160.5774994   3.2394450  83.3127975 159.5204926   3.5026624
  81.8808594 161.0567780   3.1850903  81.4258499 160.7968140   4.1408563
  81.9784851 162.1393738   3.1041203  81.0245056 160.5366974   2.0216565
  81.5176773 160.6644135   1.0580293  80.5688477 159.1001740   2.2717292
  79.9537582 159.0815125   3.1714048  79.8970947 158.8187408   1.4607798
  81.4573746 158.4689026   2.2829163  79.7551880 161.4120636   1.9729264
  80.0435562 162.4511108   1.8138558  79.1564636 161.1640472   1.0965005
  79.1904602 161.2580261   2.8924184  84.1345520 160.7159271   1.9199196
  84.1850433 159.7318878   1.1659011  84.7271652 161.8924408   1.6949681
  84.6970444 162.6286469   2.3857508  85.5700302 162.1775970   0.5310481
  86.6019821 162.1957245   0.8815553  85.4562988 161.4243164  -0.2485291
  85.3511124 163.4872894  -0.1852874  84.2902908 164.1026001  -0.0710915
  86.4337845 164.0288544  -0.7439019  87.2422180 163.4309540  -0.8390412
  86.3740463 165.2394562  -1.5658956  85.5312805 165.8504944  -1.2426811
  87.7449341 166.0277100  -1.2866009  87.6077423 167.0013275  -1.7570608
  87.8697128 166.1265411  -0.2082861  88.9042206 165.3198090  -1.7588340
  89.6659698 165.8909760  -1.6359272  86.1975021 164.8663025  -3.0633867
  86.1526260 163.6955719  -3.4740014  86.0979309 165.8828583  -3.8931723
  86.4743271 166.7723083  -3.5976751  85.9002686 165.7255249  -5.3161836
  85.6880417 166.7092285  -5.7349572  87.2521286 165.2676392  -5.9980931
  88.0889969 165.8003540  -5.5464711  87.4613037 164.2312317  -5.7331128
  87.2370834 165.4870300  -7.5183487  86.6739044 166.4821167  -8.0122957
  88.0257263 164.7496643  -8.2100449  84.6364822 164.8684845  -5.8006649
  84.7757950 163.9223938  -6.5525508  83.4990540 165.1980591  -5.2774191
  83.4300842 166.0012665  -4.6689844  82.1525269 164.6711578  -5.6612849
  82.2802048 163.6267700  -5.9460006  81.2529068 164.6305389  -4.4965911
  80.9712982 165.6621399  -4.2853465  80.3284531 164.0991058  -4.7225704
  81.9095078 163.9432373  -3.2254565  82.4144669 163.0155334  -3.4946630
  82.7055130 164.5664368  -2.8179033  80.8405304 163.7471924  -1.7750485
  79.7995453 162.3092651  -2.2745221  80.4177322 161.4118500  -2.2501900
  78.9881744 162.1884460  -1.5567571  79.3515091 162.4909668  -3.2514307
  81.5987015 165.3657532  -6.9188337  82.0313873 166.4922791  -7.3229265
  80.5152817 164.8065186  -7.5630178  80.2215805 163.8688965  -7.3291445
  79.6002274 165.5880585  -8.3890753  80.1389465 166.4261169  -8.8312759
  79.0060577 164.6724854  -9.5136013  79.8349075 164.1799774 -10.0220671
  78.5679092 163.7743683  -9.0782623  78.0332870 165.3205872 -10.5090227
  77.1055145 165.6259155 -10.0251684  78.4294205 166.2398376 -10.9404774
  77.6409912 164.3627930 -11.6346121  77.8936081 163.1168060 -11.5951290
  77.0003738 164.8036346 -12.6255579  78.5900192 166.3242798  -7.4857578
  77.9666443 165.6992035  -6.5853896  78.3151627 167.6373138  -7.7484818
  78.8079224 168.0735626  -8.5146179  77.1825943 168.3627014  -7.1283097
  76.9650269 167.8031006  -6.2185755  77.5583725 169.7343445  -6.6020670
  78.0406265 170.2762451  -7.4156322  76.7064209 170.2339478  -6.1408935
  78.7048569 169.6656342  -5.5337276  78.4475327 168.9265137  -4.7750502
  79.6711197 169.3715668  -5.9435682  79.0124588 171.0063477  -4.8309040
  78.1313324 171.8108063  -4.4106326  80.2146378 171.2251129  -4.5932574
  75.9438858 168.4963989  -8.0633507  76.1090164 168.5455780  -9.2711210
  74.7510834 168.4786835  -7.4265523  74.8195877 168.5029449  -6.4191699
  73.4802475 168.8667755  -8.0812902  73.5854111 169.1087799  -9.1388683
  72.3866959 167.8108673  -7.8243213  72.4055481 167.7501831  -6.7361751
  71.4060211 168.2116089  -8.0808096  72.6414032 166.4279022  -8.5046663
  72.4838181 166.2978668  -9.9233351  71.9287643 167.0124359 -10.5129948
  72.9662476 165.1438141 -10.5395708  72.7029572 165.0635986 -11.5839109
  73.4262009 164.0900574  -9.7480478  73.7397232 163.1370087 -10.1478138
  73.4255600 164.1933289  -8.3101110  73.7870255 163.4034271  -7.6683846
  73.0821457 165.3796082  -7.7400265  73.1218872 165.5234528  -6.6703868
  72.8344193 170.1750793  -7.5244136  72.7352371 170.4166412  -6.3070335
  72.5688019 171.0526581  -8.4698582  72.7372437 170.7707214  -9.4249716
  72.1922226 172.4371643  -8.2151165  72.5688629 172.7556000  -7.2430844
  72.8084564 173.3898468  -9.2356987  72.4851303 174.3711090  -8.8883200
  73.8938293 173.4079437  -9.1369858  72.3740234 173.2201385 -10.6752148
  72.8561783 172.1727905 -11.4713926  72.3110275 172.3617401 -12.6737461
  72.5192947 171.6225586 -13.4331141  71.4078217 173.3754120 -12.6670847
  70.9359665 173.6123352 -13.5280876  71.4518814 173.9543610 -11.3936167
  70.8304672 174.7883606 -11.1026115  70.6812057 172.6900635  -8.1396017
  70.2680893 173.4839630  -7.3077402  69.8677444 171.9171753  -8.8699112
  70.2987061 171.1012268  -9.2805147  68.4250336 172.0268707  -8.8637915
  68.1831512 173.0809326  -8.9999657  67.9879074 171.4995880  -9.7117300
  67.8330383 171.4868927  -7.6072640  68.5614853 170.9426575  -6.7446499
  66.5146408 171.7334595  -7.4550366  66.0254517 172.1069946  -8.2558260
  65.7361908 171.4064331  -6.2184186  66.2816162 170.6969147  -5.5961566
  65.5859756 172.7533875  -5.4606371  65.1726532 173.4898682  -6.1497378
  64.9671173 172.4912872  -4.6024904  66.8125763 173.4210663  -4.9408560
  67.5728455 173.4696350  -5.7204242  66.6366348 174.4257050  -4.5563855
  67.4244537 172.7326050  -3.7359440  66.8128738 172.7513428  -2.8338773
  67.4339371 171.6687012  -3.9728525  68.8197632 173.0455322  -3.4175036
  69.5079651 172.6606140  -4.0486331  69.2892685 174.0536804  -2.7328401
  68.6007385 174.9741974  -2.1935489  67.5989838 174.9294891  -2.3143175
  68.9647369 175.7047577  -1.5986629  70.5983963 174.2963409  -2.5659416
  71.2291489 173.7465057  -3.1315789  70.9268723 175.1594391  -2.1569650
  64.3618851 170.7600098  -6.4079828  63.5692482 171.0768280  -7.2847786
  64.0433731 169.8387909  -5.4941263  64.6818924 169.6967621  -4.7245684
  62.8518562 168.9667206  -5.6187544  62.3589783 169.0471649  -6.5876207
  63.3391991 167.4730530  -5.5810108  63.7836266 167.2134399  -4.6201859
  62.2732277 166.4019318  -5.9101081  61.9296227 166.5594940  -6.9324641
  62.6641121 165.3849030  -5.8790174  61.4564209 166.5451355  -5.2027006
  64.3853836 167.3092346  -6.5151658  64.6752853 166.4003296  -6.6222448
  61.8706207 169.2993927  -4.4576411  62.1810875 169.2378082  -3.3099916
  60.6728020 169.7433014  -4.7846341  60.4917870 169.7823792  -5.7775140
  59.4964523 169.9390106  -3.9251981  59.5445137 169.3065796  -3.0387337
  59.3742943 171.3727112  -3.4697754  59.2376709 171.8788300  -4.4254293
  58.4363785 171.4948120  -2.9280040  60.4519272 171.8475037  -2.5319800
  61.4501572 171.6092377  -2.8992231  60.3162270 173.3182373  -2.2752721
  59.3782005 173.5962524  -1.7947325  61.0619049 173.6773987  -1.5659924
  60.3787918 173.8509064  -3.2241943  60.3852882 171.2476807  -1.0956954
  60.4392929 170.1608276  -1.1583047  61.2751656 171.7203979  -0.6800711
  59.5085258 171.6471710  -0.5859936  58.1940231 169.4590759  -4.6151319
  58.1007004 169.5358276  -5.8553014  57.2141304 169.0476227  -3.8002708
  57.5625076 168.9227905  -2.8605087  55.8677483 168.4891357  -4.1541915
  55.8311615 168.4850464  -5.2435727  55.7019463 167.0726624  -3.5568860
  55.7778854 167.1218872  -2.4706492  54.7547379 166.6779938  -3.9244912
  56.7413254 166.0814819  -4.0226221  57.6585770 165.3402100  -3.1933351
  58.3988037 164.6461029  -4.0760264  59.2570152 164.0132141  -3.9047668
  57.9316521 164.7667999  -5.3410130  58.3061066 164.2712097  -6.1374264
  56.9047661 165.7010040  -5.2811618  56.4128799 166.1771240  -6.1164794
  54.7675514 169.4634247  -3.6422610  54.9414177 170.3045197  -2.7448833
  53.5754890 169.3816986  -4.2524161  53.5262909 168.7717285  -5.0559154
  52.3516541 170.1046753  -3.8546093  52.6604385 171.1496582  -3.8826320
  51.2434158 169.8012695  -4.8980689  51.1155930 168.7333221  -5.0748134
  50.2986832 170.1264496  -4.4623532  51.3863525 170.6420898  -6.1897058
  50.8392830 171.8226318  -6.2406807  51.8554192 170.1289673  -7.1990080
  51.8558121 169.7658844  -2.3888898  52.0192146 168.6107178  -1.8970528
  51.3160133 170.7732239  -1.6601877  51.0662994 171.6015015  -2.1814423
  50.9352188 170.6099854  -0.2698144  51.7874985 170.2039337   0.2750201
  50.6161842 171.9088593   0.4547246  49.6929321 172.1949768  -0.0491013
  50.3748550 171.7430420   1.5046659  51.7997742 172.9443817   0.3649911
  52.9859200 172.5879364   0.5992717  51.5478745 174.0878448  -0.0315521
  49.8291473 169.5889435  -0.1151671  48.7457504 169.7068634  -0.6651354
  50.0678940 168.6059723   0.7429914  50.9432716 168.6325226   1.2460936
  49.2890625 167.4309082   1.0742331  50.0279961 166.8722839   1.6487117
  48.0786514 167.8103333   1.9449579  47.5992393 168.6681366   1.4733073
  47.3671455 166.9865723   1.8877058  48.4924278 168.1088257   3.4215534
  48.9727898 167.1501007   4.0959120  48.1060181 169.2412262   3.8228111
  48.8380356 166.5373230  -0.1513701  47.8682899 165.7767792  -0.1376402
  49.5869064 166.6784973  -1.2708405  50.3591805 167.3288116  -1.2426740
  49.5467911 165.7120667  -2.4126506  48.5158463 165.6378174  -2.7586818
  50.2520447 166.3498993  -3.5702612  50.0593834 165.7743530  -4.4756441
  49.8906631 167.3613892  -3.7557859  51.6781578 166.3967438  -3.4410441
  51.9045334 167.1321106  -2.8669498  50.1274719 164.2956238  -2.0062294
  51.1139908 164.2205353  -1.2793924  49.4628563 163.2674561  -2.5025272
  48.5720024 163.4654541  -2.9352844  49.8523979 161.8653107  -2.3307598
  50.3789711 161.8120575  -1.3778745  48.6456108 160.9377899  -2.3100827
  47.9491997 161.3220978  -1.5648209  48.1566353 160.8457794  -3.2798948
  49.2435608 159.2343597  -2.0304167  49.4077644 158.9669952  -3.3290505
  50.9863396 161.4579163  -3.2784395  50.8200264 161.6551514  -4.4399447
  52.0896454 160.8712006  -2.7316549  52.0863609 160.7899780  -1.7249315
  53.3430977 160.6112213  -3.4649882  53.0739822 160.5756226  -4.5206447
  54.3523750 161.7135315  -3.1513429  54.5527382 161.5774384  -2.0885947
  55.2671623 161.4192200  -3.6657732  54.0115013 163.1855927  -3.4372613
  53.1577225 163.6157532  -2.9136930  54.8857994 163.7414703  -3.0985930
  53.8227386 163.4029999  -4.9281473  54.1714287 162.6177826  -5.8504663
  53.2980499 164.5441895  -5.3703060  52.8865356 164.6365509  -6.2880354
  52.8874168 165.1828308  -4.7042542  53.8229637 159.1048431  -3.2136154
  53.4463310 158.5623322  -2.1636367  54.6419563 158.5592804  -4.1046171
  54.9651985 159.1594391  -4.8498821  55.3720818 157.3402252  -3.7934101
  55.1324844 157.1079102  -2.7557573  54.8215714 156.0618439  -4.5297303
  53.7334023 156.1208801  -4.5070491  55.2050018 155.8821259  -6.0243254
  56.2855644 155.9077148  -6.1651793  54.8408661 154.9385223  -6.4306755
  54.7970848 156.7547913  -6.5343862  55.3777504 154.7389984  -3.8943915
  55.0375481 154.7284546  -2.8588953  54.8514366 153.8775635  -4.3055105
  56.4555206 154.6766357  -4.0447984  56.8599586 157.4799805  -3.9083037
  57.2836456 157.9527435  -4.9310522  57.6152153 156.9326019  -2.9069364
  57.1644554 156.4926605  -2.1174068  59.0778656 157.2170258  -2.6824155
  59.4523468 157.4066162  -3.6883593  59.0881424 158.4924927  -1.7813095
  58.7631226 158.1126709  -0.8127063  60.5362206 159.0585022  -1.6571598
  60.7674828 159.6493530  -2.5434494  60.5494537 159.7766266  -0.8372657
  61.3106766 158.3015442  -1.5333129  58.1793365 159.7236023  -2.2830114
  58.5200500 159.8960266  -3.3039382  57.1436462 159.4274902  -2.1164031
  58.3902473 161.0677185  -1.4964383  59.3845253 161.4846344  -1.6567198
  57.7298622 161.8267365  -1.9158019  58.0989647 161.0428619  -0.4463731
  59.8675461 156.0594635  -2.0628436  59.2760620 155.4217834  -1.1657436
  61.1088257 155.6519165  -2.5397880  61.7677269 156.2112579  -3.7048194
  61.9877892 157.2451172  -3.4387381  61.1309471 156.0992432  -4.5823545
  62.9913597 155.3891296  -3.9730611  63.8584328 155.9838867  -3.6857717
  63.1358604 155.0674438  -5.0044398  62.8584328 154.1082611  -3.0836358
  63.7858925 153.6159363  -2.7911851  62.3291473 153.3403778  -3.6478310
  61.9417686 154.6011963  -1.9641368  61.1933975 153.8253174  -1.8026700
  62.6407242 155.0039368  -0.6452382  63.2746849 156.0444641  -0.5106961
  62.5509644 154.0843201   0.3319863  62.0446625 153.2320404   0.1386492
  63.3088951 154.0902100   1.5405287  63.6812820 155.0982819   1.7227857
  62.4807014 153.5095520   2.7624938  62.4495163 152.4316864   2.6033227
  63.1736526 153.7353516   4.0841398  63.2965012 154.7933350   4.3158007
  62.6246605 153.3024139   4.9203649  64.1581421 153.2695618   4.1279836
  61.0130692 154.0589447   2.8716171  60.4594994 154.0923157   1.9332389
  60.4306068 153.5755005   3.6559136  61.0661240 155.0937958   3.2098083
  64.5440445 153.2114716   1.3112565  64.3452072 152.1029968   0.9331313
  65.7809296 153.7220306   1.6928884  65.9543533 154.6644135   2.0121713
  66.9561539 152.8891754   1.7540946  66.8943405 152.1886902   0.9212753
  68.2321243 153.7161713   1.6453353  68.2047424 154.5102692   2.3915055
  69.1104431 153.1501465   1.9555969  68.6866684 154.3758698   0.2669936
  67.8657837 154.9535065  -0.1579583  69.8644638 155.3612671   0.5371268
  70.7108383 154.8775024   1.0246941  70.1455460 155.8740540  -0.3827399
  69.4924240 156.0783539   1.2688971  69.0176392 153.2793732  -0.7276632
  68.1463089 152.9641876  -1.3017339  69.7632370 153.5731201  -1.4665072
  69.3346024 152.3795471  -0.2004470  67.0164871 152.0288086   3.0534923
  67.0576553 152.5648956   4.1514893  66.9728088 150.6781464   2.9787617
  67.0982132 149.8925323   1.7485572  68.0240784 150.1493988   1.2338805
  66.2004929 150.0547638   1.1519917  67.1067734 148.3985291   2.2245646
  68.1458054 148.1161346   2.3941658  66.7111816 147.7749329   1.4228551
  66.2598877 148.4380646   3.4985166  66.4523468 147.5785217   4.1405745
  65.2057266 148.3947754   3.2247093  66.5704803 149.8024750   4.0956020
  65.6408157 150.2255402   4.4761844  67.5452118 149.7968903   5.3270378
  67.0694733 149.5490417   6.4466610  68.8417053 150.0414124   5.1523695
  69.1058426 150.2699280   4.2046776  69.7958221 150.2362366   6.2454171
  69.4773026 149.6778564   7.1256723  71.1089401 149.6884308   5.7035232
  71.4438019 150.2230072   4.8145928  71.8318863 149.9104156   6.4884915
  71.0734177 148.2036896   5.5559907  70.4858017 147.4832611   4.5219350
  70.7332306 146.2042084   4.8092508  70.5001144 145.3739166   4.1591015
  71.2815399 146.1044006   6.0107584  71.5207291 145.1960907   6.3820701
  71.5268784 147.3532257   6.4887624  72.0983658 147.5239258   7.3891330
  69.9592667 151.6293335   6.8852825  70.8285370 151.8026581   7.7490411
  69.1004333 152.5925903   6.5667310  68.4436569 152.3992004   5.8242030
  69.2356415 154.0152283   7.0078626  70.2717590 154.2289734   7.2703109
  68.9644547 154.9473267   5.8502378  68.0409698 154.5651855   5.4152145
  68.7167511 156.4405823   6.1587467  69.4863358 156.8654175   6.8032260
  68.6257706 156.9692230   5.2098680  67.7706528 156.6062927   6.6740508
  70.0857849 154.8667297   4.7992601  70.2015839 153.9164734   4.2780085
  69.7874298 155.5880585   4.0384879  70.9723282 155.2486420   5.3055081
  68.3562164 154.2059631   8.2635689  67.3616638 154.8368683   8.2050791
  68.7387848 153.5899963   9.3830013  69.4839706 152.9181061   9.2674170
  67.7430038 153.5066528  10.5149794  66.7705460 153.2839661  10.0758486
  68.1991806 152.2868500  11.3704767  69.2129898 152.4567261  11.7330284
  67.6024170 152.1527405  12.2726870  68.1424713 150.9906616  10.6378736
  67.0931549 150.7925110  10.4193020  68.7382202 151.0227814   9.7256517
  68.5840988 149.5744171  11.6667900  68.2470398 148.3345490  10.4825850
  68.9754715 148.3568726   9.6720333  68.3767319 147.3214111  10.8631611
  67.2347031 148.4038696  10.0844994  67.4827347 154.7798615  11.3981104
  66.4702225 154.7788391  12.1610003  68.3081589 155.8109894  11.3577118
  69.1593704 155.7343750  10.8195009  68.0702133 157.0586700  12.0892773
  67.8467789 156.8262177  13.1304998  69.2795486 157.9684906  12.1915359
  68.9769974 158.8753357  12.7151880  70.3723450 157.2906494  13.0799017
  70.7805405 156.3686371  12.6659346  71.2131042 157.9574432  13.2712660
  69.9076691 156.9107208  13.9897547  69.9849854 158.3109894  10.8532248
  69.3881683 158.7430267  10.0499525  70.8070679 159.0032196  11.0351219
  70.3260727 157.3805237  10.3993340  66.8974915 157.9128418  11.5287981
  66.5880127 157.8324890  10.3343639  66.3057175 158.6588440  12.4050350
  66.5860596 158.6662598  13.3753214  65.2447052 159.5178070  12.0424194
  64.6338348 159.0088043  11.2968578  64.4229355 159.8562164  13.3146553
  63.8807144 158.9766998  13.6618261  65.1198730 160.3046722  14.0226574
  63.2474709 160.8069305  12.9045839  63.5830193 161.5453796  12.1764402
  62.6331673 160.2533417  12.1944590  62.3639679 161.6815033  14.1687717
  62.4987831 160.4256439  15.5036764  63.5467072 160.2848663  15.7685089
  61.8528671 160.6466217  16.3534126  62.1109924 159.4805450  15.1235247
  65.8037262 160.8621979  11.4042425  66.6281586 161.5781555  12.0396729
  65.4309998 161.1206512  10.1528835  64.6778488 160.5778351   9.7551050
  65.7982712 162.3744354   9.5525179  66.8012085 162.6347198   9.8908329
  65.8917847 162.1379089   8.0210686  66.6791229 161.3975067   7.8796458
  64.8883514 161.8184204   7.7397318  66.1909332 163.3596191   7.1912017
  65.4516373 164.1545258   7.2896161  67.5425415 163.9080811   7.4968853
  68.3309555 163.1922455   7.2643209  67.7795868 164.7512054   6.8479915
  67.5684128 164.1645203   8.5559731  66.2456589 163.0154572   5.6667442
  65.1982346 162.8316956   5.4275036  66.6559296 163.8432770   5.0883741
  66.8716278 162.1355743   5.5181894  64.7970123 163.4787445   9.8900414
  63.6093903 163.3519745   9.5714483  65.3071899 164.5348663  10.4951639
  66.2566833 164.4235840  10.8210230  64.6898041 165.8367310  10.6120272
  63.6160774 165.6809692  10.7167130  65.1321259 166.4499054  11.9748774
  66.1453476 166.8158112  11.8087492  64.3509216 167.7431793  12.3114443
  63.2752953 167.5776520  12.2503433  64.6277847 168.1758270  13.2728329
  64.5822220 168.4705200  11.5332508  65.0165405 165.5148621  13.1723900
  65.5943604 164.5987091  13.0503931  65.3768234 165.9808655  14.0895243
  63.6322746 165.0273895  13.5604439  63.1474800 164.5767212  12.6944380
  63.7646828 164.2454376  14.3081751  63.0279617 165.8404083  13.9628239
  64.9581146 166.7420349   9.3926306  66.0909805 166.7625580   8.8744354
  63.9125519 167.3985443   8.7804594  62.5228195 167.4257965   9.0478535
  62.2916107 167.9050293   9.9991579  62.1424522 166.4157410   9.2001209
  61.8858795 168.0821228   7.8688364  60.9869461 168.6147919   8.1791277
  61.6824150 167.3217010   7.1148672  62.8844070 169.0404358   7.3705444
  62.7762642 170.0180817   7.8402419  62.8013611 169.1888885   6.2938981
  64.2514572 168.4071503   7.6998720  64.5151978 167.8231659   6.8181143
  65.3288422 169.4490204   8.0960779  65.6840057 169.7135925   9.2724981
  66.0121994 169.9964752   7.0952535  65.6244583 169.8583221   6.1729350
  67.1824112 170.8959198   7.2797947  67.4001541 171.4074097   6.3422112
  66.9096222 171.5661316   8.0949650  68.4383316 170.1743927   7.6916375
  69.5378342 170.6855774   7.4684892  68.3487701 168.9884949   8.3387985
  67.4126892 168.6198730   8.4280739  69.5195923 168.1367950   8.7867851
  70.1579132 168.7784729   9.3941574  68.9097900 167.0351105   9.7379293
  68.3163834 167.4066925  10.5733356  68.3677521 166.3221283   9.1166935
  70.0253677 166.2984314  10.4436111  70.6704025 165.8049011   9.7166576
  70.6569443 166.9723969  11.0223904  69.5296021 165.1851959  11.3804703
  68.3409195 164.9469604  11.6672068  70.4745865 164.3760681  11.9460239
  70.2323074 163.5609741  12.4910259  71.4439545 164.4158783  11.6652298
  70.2210007 167.5771179   7.5781054  69.6405563 166.7896271   6.8455825
  71.5329285 167.8841400   7.4884195  71.8769150 168.5673370   8.1479836
  72.4244690 167.2738953   6.4799390  71.9278259 167.2749176   5.5096574
  73.6843872 168.1162720   6.2947330  74.0834656 168.3931274   7.2705321
  74.7921371 167.5338898   5.3802066  74.3055038 167.4389343   4.4094973
  75.6269379 168.2152100   5.2158766  75.1613083 166.5899658   5.7812467
  73.3587036 169.3276978   5.5993967  73.8014832 170.0110626   6.1078753
  72.7341232 165.7835236   6.8750286  72.7129822 165.4961090   8.0705767
  72.9434280 164.8656464   5.8522992  72.9021606 165.2168579   4.9062276
  73.0660019 163.4363251   6.0631166  73.4086380 163.3999481   7.0972233
  71.6376419 162.8451080   5.9688759  71.0041962 163.2962341   6.7326312
  71.1348343 163.0642242   5.0269251  71.5945435 161.2965393   6.0734625
  72.1120148 160.8312683   5.2345014  72.0141220 160.8009186   7.4452753
  71.5443497 161.4376831   8.1949139  71.6923065 159.7630005   7.5303497
  73.1023254 160.8102722   7.5071959  70.1422882 160.9496155   5.8915420
  69.8315735 161.3288269   4.9180102  70.0846558 159.8642731   5.8091254
  69.4488525 161.2536926   6.6756229  74.0490112 162.9029541   4.9618549
  73.6154633 162.6072388   3.8410821  75.2097168 162.5303955   5.3526030
  75.7823715 162.6860962   6.6728230  75.3667297 161.9387360   7.3487029
  75.7982483 163.7376556   6.9592986  77.2698669 162.2536163   6.5549126
  77.3983917 161.3274994   7.1151814  77.9117737 163.0585785   6.9128165
  77.5573425 162.0175171   5.0863194  78.1965942 161.1462097   4.9439201
  77.9136124 162.9384918   4.6248097  76.1469955 161.7711029   4.5330091
  76.1202469 162.0056152   3.4688725  75.7858658 160.2747650   4.6053076
  75.3223801 159.8126068   5.6169333  76.1482162 159.4505310   3.5757420
  76.4299469 159.8600159   2.6965067  75.9979172 157.9893951   3.5975904
  75.9462280 157.5769348   4.6052170  74.6683731 157.5506134   2.9551194
  74.8463364 157.7246399   1.8939208  74.6022568 156.4629822   2.9268973
  73.3058472 158.0004883   3.5145473  73.3199539 159.0726013   3.7106514
  72.2422180 157.6867371   2.3878822  72.3632660 156.6594086   2.0443068
  71.2772293 157.8035278   2.8810985  72.2692719 158.3179626   1.4996711
  72.9576645 157.3231964   4.8762860  73.6814728 157.7020569   5.5978599
  71.9464569 157.4887085   5.2479873  73.1424332 156.2613068   4.7138915
  77.1767807 157.3212585   2.8281341  77.6840515 157.8407593   1.8364795
  77.5214844 156.0119324   3.1224861  77.1399689 155.6508179   3.9851222
  78.4369812 155.0996399   2.4264965  78.7468872 155.5470123   1.4820824
  79.7894363 154.8606720   3.1738055  80.1114578 155.8098297   3.6021807
  79.6421356 154.2267761   4.0482121  80.9552231 154.2432404   2.3694956
  80.8190002 153.1738739   2.2082489  80.8950272 154.6887817   1.3765352
  82.4127884 154.4278717   2.8729875  82.7184448 155.1706543   3.7978234
  83.4157486 153.6740875   2.4267230  84.2685242 153.7301483   2.9649959
  83.3580933 153.0505524   1.6342788  77.7839661 153.7429810   2.0796764
  77.6692505 152.9050293   2.9379716  77.4124985 153.5036774   0.8258204
  77.5020905 154.2219543   0.1214346  76.5221786 152.3879395   0.4405656
  76.1441040 151.8815002   1.3286383  75.3056870 152.9054718  -0.4169500
  75.7121582 153.3098755  -1.3439515  74.7422562 152.0204163  -0.7124755
  74.4520645 153.9294891   0.3008253  75.0980453 154.5452728   0.9266228
  73.7436829 154.8803253  -0.6537823  73.2981415 154.3797455  -1.5134294
  73.1943665 155.5684357  -0.0112394  74.4869766 155.5060272  -1.1478728
  73.3889771 153.2663422   1.2064190  73.7478256 152.4396667   1.8195506
  72.9977417 154.0148163   1.8954847  72.6137772 152.7967072   0.6009362
  77.3119431 151.3318176  -0.4161185  77.5903549 151.4971619  -1.6275792
  77.6681747 150.2460480   0.3273879  77.3130035 150.2266693   1.2726839
  78.4709320 149.1234283  -0.2172236  78.8457565 149.3979645  -1.2032450
  79.5964737 148.9960327   0.8022341  80.3165741 148.2762909   0.4129617
  80.2170258 149.8909454   0.8483837  79.2252502 148.4413147   2.2352128
  78.7401199 149.3294830   3.2140534  78.5737839 150.3729095   2.9904263
  78.4719315 148.8303223   4.5292902  77.9694672 149.5071564   5.2044377
  78.6327438 147.4547882   4.7588534  78.3514404 146.9954376   5.6949492
  79.1155243 146.5970612   3.7784798  79.1946793 145.5361481   3.9645355
  79.3513947 147.0796661   2.4955490  79.5942535 146.4257812   1.6710140
  77.7258301 147.7322388  -0.4984291  78.2374496 146.9256897  -1.2672938
  76.4918823 147.4799957   0.0185353  76.1672592 148.1121826   0.7362062
  75.6670990 146.3321381  -0.4686060  76.2751541 145.4299927  -0.4013544
  74.4771042 146.1238556   0.4976761  73.9937210 147.0828247   0.6843196
  73.6904373 145.4991302   0.0746257  74.9166794 145.5021667   1.7882036
  75.2056656 144.0822144   1.9539846  75.4094925 143.9358978   3.2676501
  75.7469635 143.0532074   3.7904923  75.3313675 145.1201935   3.8845837
  75.5579224 145.2254791   4.8631983  74.8905182 146.0675354   3.0248072
  74.4796448 147.0368042   3.2659006  75.0519714 146.5803986  -1.8715314
  74.3390961 147.5574493  -2.0258276  75.1091232 145.6242523  -2.8435595
  75.5774307 144.2575073  -2.6415293  74.9637299 143.7826843  -1.8760130
  76.6446533 144.2754974  -2.4205632  75.1675339 143.4954834  -3.9185176
  74.1260910 143.1994629  -3.7925270  75.8311005 142.6437378  -4.0679193
  75.2543640 144.5895081  -5.0369592  74.5097046 144.4391174  -5.8186035
  76.2493286 144.7035065  -5.4672513  74.9280853 145.8987274  -4.3019829
  75.6014023 146.6270447  -4.7539964  73.5312576 146.3630371  -4.6060791
  73.3510971 147.1733551  -5.5626826  72.4863358 145.9311523  -3.9259942
  72.5426178 145.1414795  -3.2988169  71.1065826 146.3775635  -4.2026286
  70.9523773 146.3673553  -5.2816176  70.0775299 145.3100281  -3.5576696
  69.1586227 145.4117584  -4.1350536  70.4638672 144.3490753  -3.8973930
  69.8346558 145.3468323  -2.0689020  69.7205582 146.3394012  -1.6331449
  68.8559113 144.9034729  -1.8856200  70.7642136 144.5047455  -1.1521722
  71.8892059 144.2173157  -1.5213228  70.3001480 144.0579681   0.0438072
  71.0489502 143.7402191   0.6424919  69.3277054 144.0753326   0.3161134
  70.8943100 147.8168030  -3.8214877  70.1934052 148.5573425  -4.5276036
  71.6227798 148.4270630  -2.8675725  72.2527008 147.8552551  -2.3232105
  71.4859314 149.8745117  -2.5157683  70.4191971 150.0812378  -2.6020658
  72.0321274 150.1292267  -1.1062633  73.0830612 149.8540649  -1.0172508
  71.9342728 151.1998596  -0.9265955  71.2430115 149.4324493  -0.0067740
  70.1914444 149.6985168  -0.1141334  71.4302444 148.3602753  -0.0658063
  71.7114029 149.8408508   1.3685614  72.8814850 149.4824829   1.7353148
  70.9073563 150.4360809   2.1280906  72.2584839 150.8531036  -3.3854966
  71.9877319 152.0098572  -3.6017153  73.3224792 150.3035126  -3.9717915
  73.6587372 149.3712769  -3.7769527  74.0367889 150.9877014  -5.0512586
  74.4550018 151.9216156  -4.6757202  75.2424545 150.1692047  -5.5370407
  74.8839874 149.2644501  -6.0280008  76.1290665 150.9151611  -6.5323148
  76.5408936 151.8579254  -6.1721735  76.9403839 150.2158051  -6.7342310
  75.5417175 151.1300507  -7.4250336  76.1633606 149.7780762  -4.3680072
  75.7686768 148.9546204  -3.7728274  77.1126556 149.3634796  -4.7071695
  76.3042908 150.6212311  -3.6917386  73.0960464 151.0869141  -6.2242351
  73.1365585 152.0903473  -6.8923779  72.2047424 150.0836792  -6.4962583
  72.3045044 149.1846771  -6.0468788  71.3751221 150.1589355  -7.6706805
  72.0427551 150.4345856  -8.4870157  70.8232040 148.7141266  -7.9021893
  71.6793213 148.0413208  -7.9521165  70.2981491 148.4036407  -6.9988508
  70.0065765 148.6579132  -9.0694351  69.7278824 147.7477417  -9.1939659
  70.2566299 151.2339325  -7.5550928  70.0491943 152.0114594  -8.4830036
  69.5704880 151.3363190  -6.4169731  69.8097458 150.7364807  -5.6404037
  68.5032501 152.3166656  -6.1901693  67.7084274 152.1860962  -6.9245420
  67.8560791 152.2429657  -4.7462544  67.7046738 151.1842499  -4.5358219
  68.5586548 152.6883240  -4.0418673  66.4353180 152.8607178  -4.4518270
  65.7311020 152.4480743  -5.1742611  66.2577209 152.5501404  -3.4222140
  66.2670059 154.6801147  -4.6051035  67.0242157 155.2559509  -3.1013439
  68.0059662 154.7928009  -3.0025251  67.2347946 156.3250732  -3.0742109
  66.3523026 154.9119415  -2.3150325  68.9545212 153.7643127  -6.3583975
  68.2544479 154.5684052  -6.9738913  70.1030350 154.1224060  -5.8077197
  70.5741425 153.4129181  -5.2647662  70.5121536 155.5219574  -5.8146453
  69.6095734 156.0961609  -5.6055074  71.6088486 155.8772430  -4.7886257
  71.8600464 156.9352875  -4.8630929  71.1626434 155.4778137  -3.3564105
  71.0504456 154.3940887  -3.3237584  71.9682693 155.8102112  -2.7017491
  70.1873550 155.9019318  -3.1176085  72.9546432 155.2370300  -5.0935659
  73.3635178 155.5181122  -6.0640874  73.6807938 155.5726776  -4.3532043
  72.8769073 154.1513672  -5.0350647  70.9786072 155.8403473  -7.2445674
  70.6679688 156.9512329  -7.7183218  71.6092148 154.8895416  -7.9684014
  71.8181610 154.0303497  -7.4803247  71.9791946 154.9167480  -9.3709259
  72.6366501 155.7624969  -9.5722923  72.7458115 153.6867523  -9.7907944
  73.5334320 153.6544647  -9.0379944  72.0761566 152.8269806  -9.7693386
  73.4185104 153.8860016 -11.1134863  72.6943588 154.1638641 -11.8793211
  74.1427994 154.6969604 -11.0370970  74.1050034 152.5846863 -11.5518074
  73.3073349 151.8435822 -11.5008554  74.5298157 152.6816254 -12.5509262
  75.2288971 152.2971649 -10.6614408  75.5893250 153.0673981 -10.1165152
  75.8899307 151.1358490 -10.5515280  75.5882416 150.0738678 -11.2081499
  74.7959976 150.2080841 -11.8200607  76.1263275 149.2325897 -11.0571051
  76.9547119 151.0566864  -9.7745132  77.2695236 151.9834595  -9.5253735
  77.5798035 150.2853546  -9.9600019  70.8115768 155.2584534 -10.2493010
  70.7926178 156.2870789 -10.9005499  69.7811050 154.3906555 -10.2182360
  69.8548813 153.5592194  -9.6495600  68.5229034 154.6318054 -10.9322157
  68.6992416 154.6550293 -12.0076065  67.6200409 153.3449707 -10.6796589
  67.4103317 153.3108673  -9.6105671  66.6889877 153.5999603 -11.1858425
  68.1572571 152.0212402 -11.2798328  69.3403091 151.8324738 -11.5532598
  67.2942123 151.1026306 -11.6768494  67.6440353 150.2596741 -12.1094599
  66.2982025 151.2277985 -11.5655060  67.7527237 155.8337402 -10.5417328
  67.1726608 156.4167938 -11.4687977  67.6699524 156.2800293  -9.2709665
  68.0412140 155.6985168  -8.5333366  67.0069885 157.5164795  -8.8188782
  66.0075989 157.5294342  -9.2537899  66.8804321 157.3352356  -7.2389050
  66.1939392 156.5465698  -6.9309268  67.8823471 157.2444458  -6.8193398
  66.2939377 158.5684052  -6.4894562  66.7677002 159.5065460  -6.7785230
  64.8230515 158.6910706  -6.8218470  64.3404541 157.7218323  -6.6962776
  64.3178558 159.3892822  -6.1544662  64.7013779 159.1051788  -7.8227510
  66.4667740 158.3107758  -4.9757690  67.4301682 157.8343353  -4.7942100
  66.5295181 159.2604218  -4.4443879  65.6951447 157.6179810  -4.6400237
  67.7052078 158.8328400  -9.2188168  67.0358429 159.8551483  -9.4046535
  69.0375900 158.8479156  -9.3779383  69.5575562 157.9855042  -9.3004456
  69.8466339 160.0161743  -9.7394381  69.6181335 160.9146576  -9.1661940
  71.3955612 159.7603149  -9.4563999  71.5668564 158.8103333  -8.9501495
  72.3317032 159.4542542 -10.6885271  72.4220352 160.3547821 -11.2959976
  73.3427887 159.2321625 -10.3472185  72.0099945 158.6345367 -11.3309088
  71.9252472 160.8906097  -8.5303164  73.0147095 160.8590088  -8.5172234
  71.7162399 161.8557281  -8.9917965  71.4612732 160.8268585  -7.0486083
  71.8589172 159.9183044  -6.5963759  71.9335709 161.6450043  -6.5048442
  70.3723755 160.8727112  -7.0314417  69.6337738 160.4515381 -11.1747837
  69.6065292 161.6575775 -11.4683199  69.3951187 159.5581207 -12.0826530
  69.5885162 158.5955200 -11.8458424  68.8776398 159.8549347 -13.4024086
  69.5327148 160.6313934 -13.7974987  69.0133972 158.6041870 -14.2771235
  68.7604980 157.6920319 -13.7366304  68.2051315 158.6559296 -15.0065966
  70.3133545 158.5753784 -15.1119289  70.1881485 157.8015137 -15.8692579
  70.4029465 159.4776917 -15.7168369  71.6402054 158.4102936 -14.3439751
  72.4691467 159.3334503 -14.3135290  71.8275604 157.2974548 -13.6705942
  72.7479172 157.0936584 -13.3079576  71.1365891 156.5607910 -13.6689100
  67.4675980 160.5134888 -13.4420986  67.0917130 160.9354553 -14.5437212
  66.7368317 160.5608368 -12.3500509  67.1304932 160.1569366 -11.5121975
  65.5026245 161.3010101 -12.1679583  65.6076355 162.0860596 -12.9168110
  64.3367920 160.3825836 -12.4876719  63.4169846 160.9340363 -12.2928534
  64.4322510 160.0752716 -13.5290852  64.3514557 159.0849457 -11.6467752
  65.2311172 158.5181732 -11.9518604  64.3589935 159.3395386 -10.5869465
  63.1135063 158.1609802 -11.9082117  63.0253372 157.3610229 -11.1731062
  62.1957207 158.7410583 -11.8118143  63.0642433 157.5411835 -13.3242598
  62.6500626 158.2254333 -14.0647745  64.0496368 157.2422638 -13.6816950
  62.1913567 156.3165283 -13.4067945  61.2691231 156.5058594 -13.0410786
  61.9873810 156.0342712 -14.3548565  62.5987968 155.5731506 -12.8577185
  65.4015808 162.1451111 -10.8946867  66.2257462 163.0497742 -10.7364683
  64.4328308 161.9301758 -10.0225945  63.6968307 161.2893066 -10.2827406
  64.0686798 162.9286194  -8.9456263  63.9671097 163.9336243  -9.3551846
  62.7695427 162.5134888  -8.2572289  62.4643402 161.5675507  -8.7046108
  62.9807396 162.1470032  -7.2526474  61.6017036 163.5286255  -8.2789021
  61.8613052 164.6052246  -8.8619280  60.4675026 163.2854462  -7.7381015
  65.0855408 163.1706848  -7.7607131  64.8103180 164.1114349  -7.0204444
  66.1187668 162.3364105  -7.6592431  66.2149124 161.6504517  -8.3943043
  67.0756149 162.3466187  -6.5544739  67.7460251 161.4881439  -6.5952740
  67.9602966 163.6113586  -6.6317129  67.2914581 164.4720306  -6.6280603
  68.5674210 163.7760773  -5.7415619  68.9283600 163.5836792  -7.8330131
  69.7168961 162.8384705  -7.7282381  68.4352264 163.4945831  -8.8009892
  69.6612244 164.9098969  -7.8643651  70.3050308 165.0733795  -7.0001378
  70.4907837 164.7407227  -8.5508833  68.7880249 166.0598450  -8.2064104
  68.3746109 166.0491638  -9.1278667  68.6210022 167.1075897  -7.4435453
  69.0290756 167.2637177  -6.2836776  69.7919388 166.6899261  -5.9536719
  68.6812592 168.0405884  -5.7399955  67.8765106 168.0795593  -7.8506122
  67.5187302 168.1217346  -8.7941780  67.7898254 168.9323730  -7.3164768
  66.5868607 162.3016663  -5.1085114  67.3651199 162.2556763  -4.1452370
  65.2361145 162.3469543  -4.8285513  64.6503525 162.5174103  -5.6334915
  64.6505814 162.1180420  -3.4994669  65.3352432 162.5253296  -2.7555187
  63.3934708 162.9141388  -3.1907144  62.8921700 162.4396362  -2.3471241
  63.6151505 164.3357849  -2.9509547  64.3937149 164.7050018  -3.6185062
  62.7173462 164.8627777  -3.2739503  63.8307228 164.2994690  -1.8831015
  62.5282516 162.9811096  -4.3310909  61.9470787 162.2242737  -4.4361582
  64.3925018 160.6865540  -3.1186898  63.7037506 159.9236450  -3.7331245
  65.0262909 160.3337402  -1.9549944  65.7225189 160.9760742  -1.6046013
  64.5843430 159.1861267  -1.1915913  63.9402237 158.5760040  -1.8248084
  65.8521423 158.2718658  -0.9392869  65.5261841 157.3146362  -0.5324080
  66.2112350 157.9976044  -1.9312184  66.9759674 158.7298737  -0.0426873
  68.0458679 159.4838867  -0.4929548  68.0788803 159.8505402  -1.5082757
  69.0713882 159.8236847   0.3737113  69.9138336 160.4098511   0.0373920
  69.0573120 159.4963989   1.7246132  69.8302383 159.8833008   2.3721344
  67.9550934 158.8143005   2.2171323  67.8710251 158.4921417   3.2445288
  66.8843765 158.4628754   1.3598208  66.0267029 157.9151764   1.7214973
  63.8988113 159.5631256   0.0756583  63.7261505 160.7475128   0.3871016
  63.3099976 158.5679016   0.7334004  63.5150795 157.6395111   0.3926085
  62.5721283 158.8583679   1.9887667  62.5131454 159.9035187   2.2925310
  61.1254120 158.2455750   1.8749101  61.2832565 157.1743927   1.7494401
  60.5364380 158.3961639   2.7796381  60.5517883 158.7317352   1.0857923
  63.3047447 158.2578430   3.1830730  63.7760925 157.1090240   3.0446575
  63.3022957 158.8985748   4.3380928  62.9723015 159.8475342   4.4414239
  63.7146645 158.2744141   5.6198182  64.0049973 157.2367249   5.4554358
  65.0032806 159.0012817   6.0671692  64.7371216 160.0547028   6.1540499
  65.5233765 158.4999084   7.3748512  65.6336060 157.4185028   7.2940879
  66.5106506 158.9414520   7.5106454  64.8507156 158.6711273   8.2152719
  66.1132584 159.0079041   5.0265179  65.8285370 159.6671600   4.2065120
  66.9768982 159.5737457   5.3758659  66.4430923 157.9878540   4.8294773
  62.5565491 158.2913818   6.6416574  61.7779694 159.2408295   6.7502222
  62.2782593 157.1084442   7.1496835  62.9442215 156.3653717   6.9933434
  61.1769218 156.8386078   8.0631046  60.3220940 157.4399567   7.7536454
  60.7976570 155.4180908   7.8290701  61.7220535 154.8475342   7.9188547
  60.0803261 155.1267853   8.5963268  60.2349319 155.0943756   6.4944663
  60.9435081 155.3864136   5.7193956  59.9327164 153.5850067   6.4604640
  59.1820221 153.2269135   7.1649680  59.5765495 153.2394714   5.4899750
  60.8532181 153.0416412   6.6738186  58.9435997 155.8384552   6.0867505
  59.2418785 156.8483887   5.8053799  58.4847183 155.3157806   5.2474961
  58.2577438 155.8174896   6.9336634  61.4500656 157.1619568   9.5704994
  62.5521545 156.7651672  10.0560408  60.5280342 157.7859192  10.2611599
  59.6308594 158.0599060   9.8868427  60.6137733 157.7615356  11.6701412
  61.6676483 157.9247589  11.8955431  59.9183388 159.0171356  12.2651415
  58.8401375 159.0214386  12.1052246  60.0774345 158.9890747  13.3431034
  60.3237076 159.9359589  11.8414364  60.2046356 156.3766022  12.2298756
  59.0635643 156.1431427  12.5357561  61.2246780 155.4899902  12.3962803
  62.1993561 155.6957550  12.2296591  60.8584213 154.1662445  12.9798517
  59.9484138 153.8481445  12.4711275  61.9832726 153.1747131  12.7140656
  62.9652672 153.5083008  13.0494957  61.7094727 152.2754974  13.2659216
  62.1748390 152.7813263  11.2188969  61.1074295 152.1338043  10.4591532
  60.2501831 151.7954407  11.0222149  61.3301888 151.7147522   9.1490488
  60.5990944 151.0903778   8.6570692  62.5472565 151.9604187   8.5417910
  62.6814423 151.4805145   7.2519689  62.0994263 150.7393799   7.0687184
  63.5386887 152.6721802   9.2490778  64.4366989 152.9379730   8.7111855
  63.3562622 153.1146393  10.5803242  64.0989532 153.7275391  11.0693636
  60.4724045 154.3181763  14.5016537  61.3804741 154.2766571  15.3807688
  59.1809502 154.2657623  14.8135433  58.6093674 154.0416718  14.0115585
  58.5177650 154.0572052  16.1019707  58.8152351 154.7957458  16.8464050
  57.0379410 154.3847961  15.9162445  56.4777641 154.4157410  16.8507729
  56.8311348 155.3040771  15.3682928  56.3840752 153.3388367  15.1160488
  56.3046494 152.5322876  15.6306057  58.7680702 152.6586609  16.6932087
  58.9937096 152.5771484  17.9319038  58.8959389 151.5921936  15.9035692
  58.9052620 151.7685852  14.9091358  59.5473289 150.3249512  16.2871342
  60.1017532 150.4515076  17.2170296  58.5165062 149.2623596  16.5065079
  57.8046837 149.5912018  17.2636528  58.0203056 149.0405273  15.5616903
  59.1443329 148.0454407  17.1110344  60.1738205 147.5287781  16.7044125
  58.5268784 147.5504150  18.1265297  58.9376450 146.7006226  18.4860077
  57.6748314 148.0191498  18.3992767  60.5397263 149.9437408  15.2351532
  60.1661911 149.6510315  14.1177397  61.8037910 149.9469452  15.6082191
  62.0528984 150.1881256  16.5568371  62.9103355 149.6675110  14.6599932
  62.6382904 150.0399323  13.6723738  64.0787277 150.5391235  14.9843760
  63.6288643 151.5224915  15.1211586  64.7685623 150.1396637  16.3190098
  65.1227570 149.1091309  16.3447170  65.5105743 150.8928680  16.5839882
  64.0821991 150.2364044  17.1602287  65.1584625 150.5220184  13.9345131
  64.7182770 150.7861633  12.9729614  65.8240128 151.3625488  14.1310930
  65.7154922 149.5915070  13.8251581  63.1447067 148.1761322  14.4654503
  63.6865768 147.8159332  13.4148121  62.8258591 147.3293304  15.4844770
  62.3447838 147.7619324  16.2600517  62.9144440 145.8687744  15.5098877
  63.8771706 145.4918213  15.1646633  62.8222923 145.3059387  16.8931713
  63.6348572 145.7117615  17.4957829  61.8671455 145.6306458  17.3059216
  63.0304375 143.8208313  17.1620331  62.4762230 143.3075256  16.3762512
  64.0824203 143.5759125  17.0155811  62.5090637 143.4415741  18.5639076
  62.9556808 144.0415497  19.3567905  61.4217758 143.5141907  18.5890388
  63.0214920 142.0142822  18.7765503  63.9071159 141.8898773  19.2459145
  62.5391083 140.8766022  18.2772694  61.4787216 140.7783813  17.5631504
  61.0155106 141.6184845  17.2472954  61.1088600 139.8794403  17.2889481
  63.0331993 139.7700958  18.7600861  63.7890205 139.8308105  19.4272823
  62.7313271 138.8897095  18.3677959  61.8554535 145.1961975  14.5902767
  62.1893349 144.3451691  13.7662516  60.5813980 145.6325226  14.7064867
  60.3289566 146.1830292  15.5147657  59.4946976 145.2280731  13.9001579
  59.5751801 144.1799927  13.6117811  58.1989555 145.2766113  14.7900677
  58.0892639 146.2952728  15.1620989  57.3271103 145.0212555  14.1877508
  58.2118149 144.3500214  16.0429840  59.0361938 144.6683502  16.6810856
  57.3107796 144.5757751  16.6133080  58.2952156 142.8414307  15.7414427
  57.2971077 142.1676636  15.3159533  59.4243050 142.2575531  15.8836641
  59.3169937 146.0644531  12.6653519  58.6488914 145.5881348  11.7356215
  59.9433403 147.2466888  12.5598373  60.5174408 147.4860229  13.3555937
  60.0175934 148.1267700  11.4182348  60.6919250 148.9144745  11.7542362
  60.6179619 147.5237732  10.1554260  59.8461342 146.9584503   9.6331215
  60.9353256 148.2707672   9.4278374  61.7245674 146.4889679  10.3237085
  62.3215599 146.6822357  11.2149715  61.3020325 145.4911957  10.4420595
  62.7857323 146.5438843   9.1960077  63.5530853 145.7718353   9.2527666
  62.2023811 146.5095825   8.2758865  63.6161308 147.8070526   9.3466282
  63.2857094 148.3682556  10.1186247  64.6169891 148.1202850   8.6027813
  65.3186340 147.2998657   7.8460689  65.0742416 146.3206177   7.8081613
  65.8567505 147.7059937   7.0940156  65.0113144 149.3171234   8.5924101
  64.5880737 150.0092316   9.1940327  65.8158417 149.5836182   8.0430260
  58.7154770 148.9164886  11.1620789  58.2239304 149.0109863  10.0545826
  57.9911842 149.3803406  12.2035332  58.4582596 149.4441986  13.0967646
  56.7595978 150.2071686  12.1129789  56.1382675 149.9508667  11.2548628
  55.8991890 149.9539490  13.3684130  56.4628296 150.1855164  14.2721748
  55.0707474 150.6616821  13.3384314  55.4492912 148.4651337  13.4315062
  54.9667587 148.2305756  12.4826908  56.3057289 147.8156433  13.6125803
  54.6070251 148.1441956  14.6858501  54.8156967 148.8515015  15.7203598
  53.8123322 147.2038574  14.6172867  57.0884285 151.7186279  12.0443411
  57.9826584 152.1963043  12.7737637  56.4046402 152.5637970  11.1603947
  55.5795708 152.1605988  10.7399254  56.6108208 154.0437775  11.0155010
  56.7813530 154.4949493  11.9929800  57.9218750 154.2980499  10.1796894
  57.7994308 153.7467041   9.2474308  58.0133362 155.3705750  10.0081005
  58.7502747 153.9658661  10.8053932  55.4550514 154.8049622  10.3491573
  55.1815872 154.5517883   9.1789255  54.8526688 155.6935577  11.1450052
  55.1437950 155.8272858  12.1028490  53.6478653 156.3455048  10.6644707
  53.1372108 155.6814575   9.9670601  52.6940994 156.6491241  11.8242283
  53.2045135 157.3655396  12.4679193  51.6743393 156.9355621  11.5670347
  52.4014397 155.4021454  12.6311293  51.5025177 154.4137115  12.3542786
  51.4714661 153.6047516  13.4046001  50.8588448 152.7154999  13.4233446
  52.2302628 154.0930939  14.3688793  52.3349190 153.6043701  15.2465458
  52.7754097 155.2563171  13.9265127  53.4399719 155.9405060  14.4331093
  53.9437675 157.5786285   9.7644920  53.0291634 158.1373901   9.1309624
  55.1881828 158.1801453   9.8536634  55.9092751 157.6858215  10.3594112
  55.6182976 159.5177765   9.2877026  54.9066658 159.8375244   8.5264864
  55.6233139 160.5447998  10.4328346  56.1787643 160.1450958  11.2812557
  56.0475082 161.4747467  10.0542336  54.2654724 160.9586487  10.9022112
  53.6555443 162.1216888  10.4093609  54.1607780 162.7298126   9.6736059
  52.5251465 162.6332397  11.0102892  52.2403221 163.6169739  10.6674480
  51.8664818 161.9831848  12.0575905  50.9915352 162.4306793  12.5054855
  52.3434448 160.7531891  12.4238634  51.8868866 160.1891174  13.2237282
  53.5419960 160.2787933  11.8700066  54.0141258 159.4315948  12.3451233
  57.0567627 159.4740143   8.7119389  57.7102013 158.4080658   8.7821321
  57.6615257 160.5483856   8.2334938  57.1364861 161.4004669   8.0979710
  59.1124954 160.6375427   7.9631944  59.5967674 160.5404205   8.9348736
  59.4531021 159.7696381   7.3985329  59.5320854 161.9398956   7.2139158
  58.7684441 162.8897552   7.2377434  60.6855621 161.9497986   6.5579863
  61.2070427 161.0924225   6.6723242  61.2679672 163.1692352   5.8839641
  60.4520683 163.8750000   5.7281070  62.2786446 163.8473358   6.8128781
  63.0265312 163.1612396   7.2104020  62.9288673 165.0277863   6.1113977
  62.1729546 165.7351837   5.7703853  63.5851212 165.4972687   6.8442154
  63.4580841 164.5795593   5.2704906  61.5836105 164.3856049   7.9220185
  61.8038292 163.8945160   8.7169619  61.8763733 162.7935181   4.5419998
  62.5415230 161.7686462   4.3755069  61.6364098 163.4805756   3.4285426
  60.9074974 164.1794281   3.4084060  62.3109283 163.2880096   2.1335669
  62.2933159 162.2196045   1.9183456  61.5222664 163.8857574   0.9687996
  62.1183739 163.7937775   0.0608874  60.0908775 163.4064636   0.7658249
  59.5185966 163.7380066   1.6322320  59.7170181 163.6838989  -0.2197479
  60.0451660 162.3174286   0.7623828  61.3096199 165.2895355   1.2366748
  62.1250954 165.7002258   0.9401206  63.7369766 163.8420868   2.1374171
  63.9036980 165.0703735   2.0604947  64.7088852 162.9167786   2.0867682
  64.4466095 161.9414825   2.0768628  66.0548248 163.2122955   1.7043935
  66.3566208 164.0908508   2.2746115  66.8971634 161.9910431   2.2094398
  66.4841080 161.1440582   1.6616175  67.9392090 162.1190796   1.9164305
  66.8863983 161.8490295   3.2900953  66.2146225 163.4335175   0.2145592
  66.1078339 162.4648285  -0.5557496  66.5716629 164.6763916  -0.2039336
  66.6324844 165.4060974   0.4917208  67.1108246 164.9520874  -1.5999497
  66.7091904 164.1792297  -2.2552810  66.6835327 166.3725128  -2.0520129
  65.6002808 166.4276276  -1.9441949  66.9930038 167.1290283  -1.3308867
  67.1839600 166.7612915  -3.4505224  68.2639313 166.6605377  -3.5582383
  66.6734390 166.1642914  -4.2062044  66.9636230 168.2671204  -3.7921224
  65.9384308 168.8251648  -3.3766313  67.8195572 168.8102112  -4.4466305
  68.6573563 164.8605347  -1.5630758  69.3630676 165.3825226  -0.6938885
  69.2807541 164.0478363  -2.4082234  68.6918411 163.5112762  -3.0290174
  70.7231903 163.9570618  -2.5438683  71.2394562 163.9323273  -1.5841954
  71.0765381 162.5926666  -3.2394636  70.5257874 162.4351349  -4.1668043
  72.5823746 162.5887909  -3.6889668  73.1852951 162.9954681  -2.8770504
  72.9407959 161.6019135  -3.9817202  72.7199707 163.3325195  -4.4738545
  70.6637802 161.3517303  -2.3370960  71.3935318 161.3880310  -1.5282422
  69.6351242 161.5449219  -2.0327265  70.7825623 160.0248566  -3.1323953
  71.8565750 159.9962006  -3.3161459  70.4730988 159.1799469  -2.5172198
  70.1471939 160.0399933  -4.0179405  71.3021240 165.0900574  -3.3032224
  70.9985352 165.2721405  -4.4656873  72.1901474 165.9064789  -2.6568527
  72.2703094 165.7147217  -1.6684711  72.7948380 167.0914307  -3.2950156
  72.2019348 167.2506866  -4.1956844  72.7117538 168.3548584  -2.4275393
  72.8556747 169.2605743  -3.0166805  71.7024918 168.3667297  -2.0160115
  73.6643524 168.3187866  -1.2099248  74.9619217 168.8548431  -1.3434523
  75.2668533 169.2419434  -2.3044789  75.8112335 169.0700378  -0.2124971
  76.7558060 169.5877838  -0.2906958  75.2822113 168.6557159   1.0513204
  75.9757156 168.7377930   2.2452435  76.6874619 169.3807831   2.2055602
  74.0228348 168.0552521   1.1937364  73.6641006 167.7109375   2.1524632
  73.1746368 167.9106903   0.0685559  72.2248154 167.4282684   0.2460440
  74.2337494 166.8592682  -3.8102176  74.5865936 167.5401306  -4.7925334
  75.0092850 165.8646851  -3.2576261  74.6382294 165.3551025  -2.4684854
  76.2954407 165.4141998  -3.7360857  76.3519058 165.8937988  -4.7132740
  77.4823456 166.1861267  -3.0108919  77.6884995 165.8571777  -1.9923663
  78.3961029 166.1673737  -3.6048636  77.2222214 167.2336884  -2.8590710
  76.4812546 163.9514160  -3.7815888  75.9522781 163.1843872  -2.9905000
  77.2396240 163.5253296  -4.8629413  77.6505814 164.2468414  -5.4379420
  77.1533813 162.1727905  -5.3097792  76.9715118 161.4586945  -4.5066090
  75.9492874 162.0485229  -6.2771339  75.0525589 162.2143250  -5.6800618
  75.9488983 162.8730164  -6.9900975  75.8120728 160.7916260  -7.0894980
  75.0193863 159.7567596  -6.5667739  74.5676422 159.8792572  -5.5934601
  74.9834976 158.5173035  -7.2454023  74.3333740 157.7275848  -6.8988733
  75.5623245 158.3784027  -8.5182819  75.3259888 157.4098969  -9.4690332
  75.0758438 156.5462036  -9.1327839  76.3682632 159.4330750  -9.0076485
  76.8879776 159.2916107  -9.9437523  76.5187912 160.6562805  -8.2953825
  77.1165771 161.5109863  -8.5756245  78.4780884 161.6519012  -5.9693880
  79.0757370 162.4087372  -6.7303972  78.9251938 160.3861694  -5.7902822
  78.4198608 159.8784943  -5.0782337  80.2311172 159.8511658  -6.2087479
  80.3749008 160.2649689  -7.2068472  81.3177567 160.3630219  -5.3277216
  81.0913925 161.3695374  -4.9758916  81.4203873 159.6886749  -4.4775262
  82.6893082 160.4492950  -6.0144081  82.8614960 159.4391632  -6.3859968
  82.6012650 161.2027283  -6.7971601  83.8821335 160.7905121  -5.0798841
  83.6928864 161.5873566  -4.3606319  84.0392227 159.9256744  -4.4353056
  85.0783844 161.1815796  -5.8557711  84.9782104 162.0229034  -6.4055223
  86.1770935 160.5685425  -6.1098309  86.6644821 159.5341797  -5.4904070
  86.0686340 159.1325989  -4.7806225  87.5094528 159.0783844  -5.8040605
  87.1104279 161.1859131  -6.8435163  86.8760757 161.9768372  -7.4262881
  88.0017548 160.7125549  -6.8831158  80.3983459 158.2532043  -6.3276219
  80.1436234 157.5450439  -5.3491731  80.7139359 157.6379700  -7.5000029
  81.1266174 158.2035675  -8.2279415  80.8192825 156.1584930  -7.6356759
  80.3479385 155.6619720  -6.7875018  80.0682602 155.7468719  -8.8785896
  80.1725922 156.5265350  -9.6331320  80.4580460 154.7919617  -9.2311954
  78.5199280 155.6105652  -8.5354633  78.3112183 155.4138641  -7.4838681
  78.0481110 156.5766449  -8.7148457  77.8397522 154.4879913  -9.3447227
  76.9577789 153.8635864  -8.8148499  78.1363678 154.1397095 -10.5576420
  82.3072739 155.7114105  -7.4583058  83.2007523 156.3170013  -8.0482683
  82.4688797 154.6668243  -6.7476611  81.6635818 154.1134338  -6.4920344
  83.7588654 154.0489197  -6.5261278  84.4868317 154.3353424  -7.2851605
  84.4546051 154.4948730  -5.2693281  83.7582321 154.3971710  -4.4364886
  85.2881775 153.8439484  -5.0055532  84.9984818 155.9734802  -5.3817282
  85.9096756 155.9111938  -5.9766593  84.2435684 156.6319580  -5.8113980
  85.3900223 156.5400543  -3.9686744  85.8136139 155.7526855  -3.1251256
  85.6043472 157.7746124  -3.7853181  83.7510681 152.4866180  -6.7722144
  82.7740631 151.7775726  -6.5053487  84.8896179 151.8667603  -7.1330771
  85.7657852 152.3449097  -7.2873702  85.0004120 150.4167480  -7.3196626
  84.3135681 149.8177795  -6.7216921  84.7467804 150.0954742  -8.8259983
  83.7207336 150.4113159  -9.0145235  85.3773880 150.7610016  -9.4154854
  85.0331726 148.6348877  -9.1436596  86.1141968 148.5513153  -9.0318546
  84.5824432 147.9986572  -8.3819799  84.5208893 148.1328430 -10.5064173
  84.3919983 146.8851624 -10.7895174  84.1026001 148.9694519 -11.3990583
  83.5021515 148.6596680 -12.1497898  84.1194229 149.9542236 -11.1753502
  86.3503723 149.9599762  -6.7602787  87.4540863 150.3684845  -7.2487340
  86.3583832 149.1341095  -5.7239809  85.4970093 148.6854553  -5.4468060
  87.5597916 148.5755920  -5.0502858  88.2963715 148.3894043  -5.8318791
  88.2763443 149.4438477  -4.0082450  87.5671158 149.5675354  -3.1898372
  89.1525726 148.9304657  -3.6123109  88.8143463 150.8623352  -4.5353546
  89.3602982 150.6749115  -5.4599671  87.9577179 151.4856262  -4.7918620
  89.6853867 151.6273193  -3.5314891  89.1394424 152.3790131  -2.6930594
  90.8997726 151.3393707  -3.5611904  87.2754135 147.1893768  -4.3950000
  86.1084900 146.8578796  -4.2731924  88.2695999 146.3316498  -4.0382528
  89.1785049 146.7702484  -3.9978306  88.0443954 144.9278717  -3.5630240
  88.9631958 144.3759613  -3.7612484  87.7723465 144.9269409  -2.0554698
  86.7204285 145.1935883  -1.9530718  87.9063568 143.9246521  -1.6485858
  88.5276718 145.8646698  -1.1557997  89.7351837 145.4403992  -0.5763648
  90.1325226 144.4547272  -0.7686455  90.4381943 146.2637634   0.3233951
  91.3596115 145.9388885   0.7836592  89.9451370 147.5775604   0.6013573
  90.6308975 148.4191742   1.4100183  91.5235062 148.1612091   1.6514559
  88.7380600 147.9906006   0.0644128  88.3438950 148.9234772   0.4396318
  88.0211487 147.1217651  -0.7843178  87.0622177 147.4679413  -1.1407026
  87.0463943 144.0610962  -4.3254123  86.3390350 143.2772980  -3.6800561
  86.8775330 144.2158813  -5.6634097  87.4465408 144.8827362  -6.1650496
  85.9705200 143.3442383  -6.4044313  86.2556686 143.4438934  -7.4517412
  86.0571976 142.2922668  -6.1324940  84.5036469 143.6874542  -6.2250566
  83.7063293 142.8245392  -6.6175003  84.1548996 144.8274841  -5.5716496
  84.9256287 145.3785553  -5.2217994  82.8110657 145.2261810  -5.2065711
  82.2433167 144.3376465  -5.4827614  82.5468216 145.3295288  -3.6470442
  81.4673080 145.3503113  -3.4976542  83.0472870 144.0959167  -2.9314966
  84.0934219 143.8824615  -3.1508965  82.9071655 144.1194305  -1.8507963
  82.5223236 143.2238159  -3.3213224  83.2644424 146.5276489  -2.9667423
  84.2645264 146.1883392  -2.6969292  83.3849716 147.3114166  -3.7145908
  82.6116486 147.0551910  -1.6722420  82.8378372 146.3124237  -0.9072360
  83.1155167 147.9242401  -1.2492071  81.5353394 147.1793823  -1.7915642
  82.4440842 146.4690399  -6.0174837  83.3248825 147.2204895  -6.4241695
  81.1348114 146.6983795  -6.2074385  80.4406815 146.0432434  -5.8771892
  80.6167603 148.0170135  -6.5682492  81.3657608 148.5240173  -7.1765518
  79.3701172 147.9496307  -7.5043707  78.5866318 147.3653412  -7.0218101
  79.0619202 148.9695740  -7.7342148  79.7574081 147.2150421  -8.7911539
  80.7491913 147.5858002  -9.0500193  79.9769211 146.1548767  -8.6648159
  78.7726974 147.4577637  -9.9708652  77.9694824 148.4353333  -9.9990330
  78.9635696 146.7832184 -10.9792852  80.2132339 148.8286285  -5.2924938
  79.8424530 148.1938171  -4.2866554  80.2892456 150.1312561  -5.3476539
  80.7333221 150.5906830  -6.1298399  79.9904251 151.0483856  -4.2096443
  79.0887985 150.6364441  -3.7563586  81.0644150 150.8958893  -3.1255443
  81.2716904 149.8500061  -2.8991466  82.5059357 151.4031067  -3.5495298
  82.5790558 152.3612061  -4.0641084  83.2242966 151.3937073  -2.7297938
  82.8968048 150.6548920  -4.2390990  80.6471786 151.6934204  -1.9704453
  81.3239441 151.5338135  -1.3085392  79.7330704 152.5134888  -4.5361657
  80.0697403 153.0079803  -5.6416960  79.0445862 153.2607422  -3.6312883
  78.8844681 152.8952332  -2.7034581  78.6622925 154.6905060  -3.8224652
  79.3762589 155.1051788  -4.5340891  77.3087082 154.7009277  -4.6574950
  77.5621796 154.3063965  -5.6414704  76.1651993 153.9228210  -4.0441098
  75.9053726 154.4718628  -3.1390455  75.3076630 153.8918915  -4.7162499
  76.3823090 152.9019470  -3.7297654  76.8203201 156.0886993  -4.9710369
  77.6048660 156.6561584  -5.4716158  76.0184555 155.9915161  -5.7029324
  76.3962250 156.5203400  -4.0644279  78.5651627 155.5262146  -2.5658951
  78.0277252 155.1398621  -1.5456682  79.0732346 156.7987976  -2.6349871
  79.3745499 157.1613922  -3.5282042  79.1173859 157.7915649  -1.5171906
  78.7674866 157.3356018  -0.5910282  80.5448074 158.2651978  -1.5733531
  80.7513580 158.5936737  -2.5919511  80.6666718 159.1912842  -1.0115619
  81.5608063 157.2039642  -1.0547700  81.3864136 157.0526428   0.0104957
  81.4373550 156.2074432  -1.4788154  83.0009308 157.7174835  -1.2327430
  83.2972336 157.7076569  -2.2816515  82.9619141 158.8006592  -1.1173480
  84.1385193 157.2119751  -0.3284095  83.9178467 157.4230499   0.7179432
  84.1924591 156.1271973  -0.4203037  85.4841385 157.7661743  -0.6349635
  85.4418335 158.7681122  -0.7550684  86.1619186 157.5445251   0.0802931
  85.8254929 157.4512329  -1.5318404  78.1466141 158.9410248  -1.8583601
  78.1522217 159.4421692  -2.9905417  77.3929062 159.3809052  -0.8544372
  77.4886932 158.9728394   0.0644748  76.3824310 160.4492340  -1.0607266
  76.7447968 161.0460205  -1.8977696  75.0200500 159.9399414  -1.5388482
  74.4419479 160.8278656  -1.7947570  74.9430618 158.9419556  -2.6760540
  75.3895950 157.9990234  -2.3604603  73.8816223 158.8093109  -2.8854656
  75.3311462 159.3693848  -3.6006052  74.1273575 159.2498779  -0.4912973
  74.1850815 159.7663422   0.4668449  73.0893860 159.3550568  -0.8069732
  74.3878555 158.1926270  -0.4415557  76.2335815 161.3463287   0.0688622
  76.3536911 160.9625549   1.1931514  76.0169067 162.6457367  -0.1693175
  75.8603745 162.9355774  -1.1240895  75.6582794 163.6963043   0.8347736
  75.5454636 163.1881866   1.7924762  76.7413483 164.8168030   0.9492621
  77.0152969 165.0451813  -0.0807346  76.2580566 165.6699524   1.4253509
  77.8991013 164.3778229   1.8076252  77.6581421 164.3450317   2.8701546
  78.1123505 163.3397064   1.5528388  79.1964798 165.1486359   1.5369092
  79.9566269 164.8785706   2.2699425  79.5815659 164.8193970   0.5718160
  78.9877777 166.6589508   1.5283568  78.1651382 166.9240723   0.8642092
  78.7038956 166.8726349   2.5588219  80.2751999 167.3298340   1.0904166
  80.4891357 167.0376129   0.1475796  80.1553421 168.3326263   1.0785969
  81.0252838 167.1168518   1.7323824  74.2363129 164.2469788   0.4698360
  73.9491196 164.5563354  -0.7002020  73.3257980 164.3693390   1.4169629
  73.6487656 164.1649628   2.3518579  71.9031830 164.5536957   1.3014349
  71.6700439 165.0889435   0.3809701  71.2397156 163.1422577   1.3625389
  71.5345383 162.6229095   2.2743723  70.1647339 163.3153992   1.3120764
  71.5412064 162.5469055   0.5007046  71.3129120 165.4722443   2.4091079
  71.9797897 165.6905518   3.3986123  70.0830536 165.9988403   2.2496045
  69.6047440 165.9581909   1.3609712  69.4631653 166.8812103   3.1798511
  69.8052673 166.7079010   4.2001619  69.9853516 168.2932129   2.7901483
  71.0609512 168.1460571   2.6925683  69.4404755 168.8647003   1.5001277
  68.3562393 168.9595184   1.5596493  69.9312057 169.8218384   1.3236029
  69.6049881 168.1925964   0.6579214  69.7281799 169.3781281   3.8665500
  68.7090530 169.7243195   3.6944561  69.8134995 168.8901215   4.8374658
  70.6608124 170.5795898   3.9198866  70.5277557 171.2429962   3.0653183
  70.3743439 171.0977325   4.8350720  71.7053986 170.2706146   3.8814316
  67.9414673 166.7402954   3.1485584  67.3084488 166.4399719   2.1369944
  67.3491440 166.8656006   4.3220820  67.9071884 167.1134796   5.1265965
  65.8871155 166.6542206   4.4207568  65.5735016 165.7533417   3.8933547
  65.6748276 166.5112152   5.4802794  64.9700851 167.7841492   3.9013600
  64.9160690 168.8672028   4.5616827  64.3316803 167.7089539   2.7576947
  64.4366150 166.8672638   2.2093894  63.4466591 168.7967834   2.1727214
  63.9561462 169.7262115   2.4270833  63.3623505 168.6793060   0.6772645
  63.1384811 167.6231842   0.5269303  62.5673523 169.3695831   0.3951313
  64.5870209 168.9093323  -0.2196442  65.4732132 168.5811462   0.3235437
  64.4035873 168.3554535  -1.1403332  64.7536469 170.3825073  -0.6324922
  65.3922958 170.3966827  -1.5156846  63.8095131 170.8270721  -0.9472367
  65.3227692 171.1724548   0.5442405  64.6048508 171.5599823   1.1396438
  66.6020966 171.4613342   0.7382774  67.5584335 170.8769989   0.0176530
  67.2923889 170.1769257  -0.6600086  68.4883194 171.2696075   0.0533147
  66.8920746 172.4692688   1.4851995  66.1728668 173.0106201   1.9432082
  67.7950745 172.9214478   1.4698763  62.0546455 169.0038910   2.8258159
  61.7438965 170.1006165   3.2852924  61.2795372 167.8996735   2.9666402
  61.6431808 166.9640961   2.8545187  59.7913322 167.9674988   3.4046774
  59.5730362 168.9127502   3.9016156  58.8876495 167.8180237   2.1816525
  58.8867111 166.7462463   1.9832162  57.9153748 168.1979523   2.4953883
  59.3414688 168.6352234   0.9081717  58.8463669 169.6062775   0.9146840
  60.4103546 168.8475037   0.9311249  58.9756088 167.9784241  -0.3399447
  58.2751961 168.5165100  -1.1810945  59.3874702 166.7224731  -0.5253446
  59.0711136 166.2636719  -1.3676770  60.0324249 166.3177338   0.1382218
  59.5191383 166.8673401   4.3856997  60.0593071 165.7841034   4.2878919
  58.6438026 167.0943298   5.4219117  58.1501503 167.9754486   5.4273162
  57.9851379 165.9687500   6.1839442  58.8316994 165.3331604   6.4436684
  57.4210892 166.5671997   7.4854760  56.7051277 167.3582153   7.2623272
  56.8489113 165.8960724   8.1260147  58.4939079 167.3043518   8.3129416
  59.2340355 166.5373993   8.5411921  58.9018707 168.1486053   7.7571630
  57.9274712 167.7393799   9.6688032  57.3606186 167.0225983  10.2629547
  58.7502823 168.0384216  10.3181515  57.1742096 169.0273285   9.5662785
  57.7224464 169.8323364   9.2988863  55.9263268 169.2769775   9.8501568
  54.9907150 168.3760529  10.0966930  55.2180786 167.4774780  10.4979143
  54.0796547 168.7483673  10.3235378  55.4498405 170.5002441   9.7714262
  56.0790253 171.2692719   9.5902128  54.4646912 170.7004700   9.8688450
  56.8746490 165.2066803   5.4073277  56.3374252 165.8255005   4.4920783
  56.5085220 164.0202637   5.7905550  57.1358719 163.4826050   6.3714581
  55.3012962 163.3287811   5.4310899  54.6230545 164.0596466   4.9907098
  55.6150246 162.4345703   4.1753097  54.6641731 161.9273376   4.0119686
  55.8492889 163.1556091   3.3921535  56.7509155 161.4654388   4.3616090
  56.6381416 160.2843323   5.1340656  55.7127876 159.9716339   5.5948620
  57.7758102 159.4322357   5.2463837  57.5668068 158.5211029   5.7872696
  58.9273148 159.7106934   4.5409541  59.7916107 159.0727997   4.6526861
  59.0174599 160.8068542   3.6825709  59.9203339 160.9577789   3.1094725
  57.9319687 161.7086182   3.6493821  57.9782867 162.5519257   2.9762764
  54.5701599 162.4429474   6.5052786  55.1422882 161.9860687   7.5020213
  53.2573967 162.1157837   6.2022376  52.8227463 162.7211761   5.5205607
  52.4651527 160.9866943   6.7312498  52.9303551 160.7187347   7.6798744
  50.9956932 161.4093781   7.0307302  51.0517616 162.4282837   7.4138842
  50.3817177 161.4750366   6.1324921  50.3135605 160.4621887   8.0155249
  50.3976059 159.4541626   7.6094294  50.7624359 160.6181030   8.9964943
  48.7828941 160.6910095   8.1748619  48.3331261 160.7266998   7.1826253
  48.3534660 159.8428802   8.7081461  48.3542900 161.9020844   9.0147734
  48.9414024 161.9747772   9.9302616  48.5519333 162.8309631   8.4797735
  46.8641815 162.0062561   9.2308569  46.4410515 161.2995758   9.8153877
  46.6494141 162.9381409   9.5557547  46.4141884 161.9790039   8.3270521
  52.5541000 159.7611847   5.8340206  52.4906120 159.9168549   4.6146102
  52.6664810 158.5197449   6.3631177  52.7177658 158.4665985   7.3704133
  52.7760468 157.2476807   5.6548610  53.1359062 157.4320831   4.6426392
  53.7958832 156.2589722   6.3250580  53.5152092 156.1344910   7.3709183
  53.7921906 154.7909241   5.7886715  53.8579178 154.8081970   4.7007918
  54.6453629 154.2734222   6.2273054  52.8684845 154.2782135   6.0570183
  55.2064323 156.8606262   6.2166901  55.2411919 157.8212128   6.7306681
  55.9649773 156.3256226   6.7880731  55.4883766 157.0607452   5.1829762
  51.3703880 156.6049805   5.4678116  50.5466766 156.4844513   6.4012322
  51.1244621 156.0971680   4.2654934  51.7822914 156.0981293   3.4991009
  49.9006996 155.3807678   3.9551554  49.1306114 155.6301727   4.6851296
  49.3215485 155.9801025   2.6074421  49.9458580 155.7414856   1.7463961
  48.3863068 155.4406128   2.4578311  48.8951836 157.4808350   2.6058345
  49.7462883 158.1057129   2.8764975  48.3906784 157.8841553   1.2211875
  47.4666862 157.3941650   0.9141823  48.2588959 158.9653778   1.1801714
  49.1220894 157.6291656   0.4542960  47.7897949 157.7010498   3.6326327
  48.1756973 157.6616364   4.6512718  47.3135262 158.6593781   3.4255736
  47.0767365 156.8937531   3.4655128  50.0439873 153.8366699   3.8133059
  49.2280426 153.0265808   4.2258191  51.1439934 153.4116974   3.2463088
  51.8707581 154.0868988   3.0565701  51.4121437 151.9915466   2.8945909
  51.1324615 151.3809814   3.7531316  50.5283356 151.5772247   1.6959537
  49.5024719 151.8415527   1.9525256  50.8494797 152.1100464   0.8009279
  50.6432037 150.0587463   1.3935186  51.6735420 149.7744293   1.1798232
  50.2713852 149.4900970   2.2458656  49.7641640 149.7583466   0.1707388
  48.5234261 149.7750702   0.2304791  50.3374367 149.4432983  -0.8978261
  52.9212685 151.8094025   2.6899471  53.6009789 152.7147064   2.1789258
  53.4614029 150.6289520   3.1274257  52.9076195 149.9012604   3.5562465
  54.8811951 150.2217102   2.7970760  55.3361702 150.9106445   2.0854027
  55.8192329 150.3668365   4.0299172  55.6251793 149.5785522   4.7572799
  57.2573357 150.1533661   3.5476468  57.5412521 150.7746124   2.6982179
  58.0027618 150.3225708   4.3246965  57.3733673 149.1347504   3.1774204
  55.7258949 151.6987915   4.7492580  56.1433754 152.4472809   4.0757785
  54.6770439 151.9222565   4.9444098  56.4802399 151.7779999   6.1481271
  57.5527878 151.6041870   6.0613232  56.3084221 152.7557831   6.5981331
  56.1794472 151.0799103   6.9293571  54.8731232 148.8487854   2.1287258
  54.3276253 147.8865356   2.6284897  55.6219444 148.7808990   0.9893006
  56.1554337 149.6139374   0.7854818  55.7959747 147.6203003   0.0288878
  55.1961517 146.7885742   0.3983910  55.3023834 147.9541168  -1.3852063
  54.3162498 148.4184875  -1.3855124  55.8595505 148.8063965  -1.7741792
  55.4097633 146.7168427  -2.3479881  56.4375076 146.6155853  -2.6966836
  55.1177254 145.7739563  -1.8856102  54.3692322 146.8795624  -3.4474006
  53.4083366 146.5869751  -3.0241194  54.3237457 147.9250183  -3.7524395
  54.6716156 145.9813995  -4.6257153  55.0267525 145.0806274  -4.3382993
  54.6316605 146.2614899  -5.9021597  54.2595139 147.4571381  -6.2448020
  53.9282379 148.1556854  -5.5948911  53.9657898 147.5620422  -7.2054372
  55.1382332 145.4082794  -6.7834396  55.4653130 144.5122681  -6.4513574
  55.1359901 145.7008820  -7.7501245  57.2551117 147.1714935   0.0351878
  58.1137581 147.9978485  -0.2630492  57.4720383 145.8931885   0.3559106
  56.7229156 145.2307739   0.4977434  58.8777771 145.3559265   0.1131463
  59.6244507 146.1486816   0.1592112  59.2478714 144.2317352   1.1086136
  58.6915970 143.3133087   0.9211010  60.7331581 143.9691925   0.9885371
  61.2797623 144.9107971   0.9365367  61.2011375 143.4470215   1.8230647
  60.9319801 143.3946686   0.0838337  59.0500450 144.6723022   2.4443448
  58.1070747 144.8252869   2.5392427  59.0291367 144.7469177  -1.2641003
  58.2191620 143.8355713  -1.5923914  59.8329391 145.3430939  -2.1626146
  60.3765755 146.1464691  -1.8812517  60.0582008 144.8029785  -3.5271254
  59.0828323 144.5816193  -3.9604344  60.7996407 145.8500061  -4.3592238
  61.6446495 146.2540741  -3.8017447  61.2445984 145.3229980  -5.2032466
  59.8308907 146.9476929  -4.9794016  58.8462677 146.5776062  -5.2651653
  59.6277313 147.6777039  -4.1958799  60.3068733 147.6805725  -6.2253108
  60.2269630 148.8645935  -6.4081659  60.8660355 147.0178986  -7.2366104
  61.2301254 147.6015778  -7.9761024  60.9369431 146.0105896  -7.2565079
  60.9520302 143.5243988  -3.3900740  61.6662979 143.2649384  -2.3945446
  61.0293846 142.8797455  -4.5162940  60.4933739 143.2459106  -5.2900543
  61.5716057 141.5347595  -4.7383733  61.0788727 140.8959503  -4.0054016
  61.2687645 140.9721985  -6.1436319  61.9891739 141.4247742  -6.8250136
  61.4617615 139.8995209  -6.1587267  59.9077721 141.2450867  -6.5597572
  59.8746529 141.4340210  -7.5003972  63.0601501 141.4351044  -4.5271006
  63.5684929 140.4500122  -4.0103698  63.8374405 142.4067688  -4.9771070
  63.3470116 143.2178802  -5.3259239  65.2831116 142.4310150  -4.9016037
  65.6906281 141.4706879  -5.2174859  65.7597504 143.4186096  -5.9743185
  66.8443069 143.3655396  -6.0692577  65.4891891 143.0770264  -6.9734268
  65.4730072 144.8916931  -5.7853169  64.6656952 145.2750854  -4.9001207
  65.9859314 145.7010956  -6.5933523  65.7696609 142.8305817  -3.5307252
  66.9456635 142.6065979  -3.2363939  64.9073410 143.4504547  -2.6626503
  63.9750710 143.6533203  -2.9940372  65.3562393 143.8729706  -1.3334724
  65.0637741 143.1744690  -0.5494797  66.4282684 144.0700836  -1.3301781
  64.7492828 145.1891174  -0.8597269  64.2279434 145.1913605   0.2919872
  64.7796097 146.2819977  -1.6448647  65.0848618 146.2059784  -2.6046269
  64.4008789 147.6254883  -1.1713407  64.9533615 147.7707214  -0.2430241
  64.9235535 148.7955322  -2.0342805  64.5507889 149.6915436  -1.5379928
  66.4803085 148.9365234  -2.1126828  66.8960724 148.1263123  -2.7116861
  66.8611755 149.8784943  -2.5073266  67.0595932 148.7881622  -1.2013566
  64.3301086 148.7810974  -3.5367703  65.0663681 149.0596619  -4.2907128
  64.0077820 147.7636108  -3.7579775  63.1522217 149.7347565  -3.6163521
  63.5175667 150.7607880  -3.5730548  62.6466026 149.4165955  -4.5280681
  62.4590263 149.4550323  -2.8230410  62.9055061 147.8631134  -0.8723140
  62.0635338 147.2137451  -1.4744062  62.5223541 148.8196869  -0.0167389
  63.2781487 149.2591095   0.4890003  61.1776772 149.1803894   0.3337730
  60.5581932 148.4025269  -0.1126190  60.8903961 149.2928009   1.9243873
  61.4002686 150.1667633   2.3297412  59.8333588 149.5434265   2.0135846
  61.1463966 147.9787140   2.6770699  60.6491508 147.2065887   2.0899897
  62.2094154 147.7903900   2.5266612  60.6573105 147.8307953   4.1433172
  61.0701485 148.6134033   5.0317426  59.8538971 146.8025208   4.4191465
  59.5021973 146.7477112   5.3643465  59.7578850 146.0284119   3.7775519
  60.6757317 150.4290619  -0.4555356  61.3106956 151.4772491  -0.5191709
  59.4568634 150.3791046  -1.0159109  58.8973885 149.5397949  -0.9643316
  58.6886101 151.5005951  -1.5209799  59.3219681 152.3586578  -1.7461468
  57.9502182 151.0512695  -2.7994158  57.3953400 150.1200714  -2.6851141
  57.2089767 151.8334503  -2.9633198  58.8138885 150.8161926  -4.0760775
  59.6704330 150.1745148  -3.8695138  58.2184868 150.1890869  -4.7396545
  59.3192368 152.0723114  -4.7871051  59.1626625 153.1889648  -4.2984886
  59.9126930 151.9027863  -5.9753747  60.3111839 152.7147980  -6.4247484
  60.0145302 150.9456482  -6.2813587  57.6520386 151.8769226  -0.4383294
  56.9927483 151.0655518   0.2323286  57.3080711 153.1791992  -0.4638112
  57.8594398 153.9005127  -0.9062944  56.3061409 153.7344360   0.4941269
  55.5932922 152.9433899   0.7269199  57.0454712 154.2008362   1.7829576
  57.5977364 155.1249390   1.6122324  56.4255219 154.4060516   2.6556866
  57.7855682 153.4674225   2.1030607  55.5064774 154.8403015  -0.1685279
  56.1209183 155.8096619  -0.6300001  54.1948547 154.6985321  -0.1779000
  53.8954506 153.8314972   0.2448143  53.2291412 155.7496033  -0.3977135
  53.6205902 156.3656311  -1.2072704  51.8940392 155.1746979  -0.9000415
  51.4485550 154.5742798  -0.1068567  51.2592506 156.0513763  -1.0287697
  51.9096107 154.4634247  -2.2479613  52.2692375 155.1452942  -3.0185523
  52.5517769 153.5919647  -2.1203022  50.4676895 154.0080261  -2.6364975
  50.1347847 153.2724915  -1.9041972  49.8492279 154.9002075  -2.5384607
  50.3924828 153.4915161  -4.0810008  49.3354568 153.5016479  -4.3468866
  50.8379707 154.2316742  -4.7456880  50.9271126 152.0372314  -4.2941608
  50.4469414 151.3407593  -3.7423720  50.9235268 151.7259827  -5.2550039
  51.9210434 151.9811249  -4.1237063  53.0387955 156.6021576   0.8551980
  52.8960686 156.0874786   2.0076666  53.1717796 157.9640350   0.6531889
  53.3532791 158.2345276  -0.3028430  53.2248268 159.0671692   1.6634872
  52.7946548 158.5153503   2.4992764  54.7028198 159.4466858   1.9331182
  54.6239281 160.0548706   2.8342221  55.6858788 158.3092957   2.1971507
  55.8155632 157.6616821   1.3300433  56.6346741 158.7718506   2.4690619
  55.3170128 157.7518616   3.0581365  55.2864914 160.2934723   0.8245863
  54.7483521 161.2256470   0.6526015  56.2779732 160.6844940   1.0529952
  55.3883286 159.6826935  -0.0724487  52.4119453 160.2403564   1.2430131
  52.0071945 160.3510895   0.0619481  52.1937485 161.1901398   2.1453822
  52.5306015 161.0887909   3.0921445  51.4806290 162.4848785   1.8453140
  51.4562569 162.6208191   0.7640993  49.9704781 162.4607239   2.3542478
  49.4937210 161.6683350   1.7772484  49.9680786 162.2131805   3.4157660
  49.2202873 163.7563629   2.2818809  49.8873520 164.5280762   2.6660404
  49.0341263 163.9288483   1.2218364  47.9025421 163.7853241   2.9660261
  47.0266266 162.9344788   2.8849766  47.6587372 164.8769836   3.7032940
  46.7626381 164.9942017   4.1542559  48.3776169 165.5585327   3.9002788
  52.2756157 163.5934601   2.4991484  52.5701981 163.5552979   3.7092683
  52.7388611 164.5113525   1.6374733  52.5222130 164.4160309   0.6555985
  53.6867142 165.5706329   2.0035605  54.3362999 165.1114807   2.7487621
  54.5745468 166.1065216   0.7851629  53.8899193 166.2340698  -0.0533642
  55.0934792 167.5417633   0.9489155  55.6413574 167.6293030   1.8871404
  55.7437820 167.8582611   0.1334212  54.2515526 168.2310028   0.8841342
  55.8240929 165.2723083   0.4284700  56.4347038 165.6530151  -0.3902618
  56.5226936 165.4545593   1.2450745  55.5799408 163.7850037   0.1929181
  54.8371239 163.5578918  -0.5717671  56.4620667 163.1759644  -0.0046482
  55.1778183 163.3637543   1.1143079  53.0591393 166.6878204   2.8186834
  52.1181717 167.3965302   2.3615897  53.6226349 166.8669128   4.0231242
  54.5297623 166.4830475   4.2464533  53.0622063 167.8119049   4.9897666
  51.9904175 167.9290009   4.8295851  53.3253746 167.1453094   6.3622866
  54.3942909 166.9372406   6.4094534  53.1935158 167.8211517   7.2072449
  52.6762123 165.7816010   6.5953722  53.0836143 164.9999390   5.9541783
  53.0497932 165.1911316   7.9772706  52.7048340 165.8553619   8.7696686
  52.5740738 164.2170563   8.0912180  54.1141701 164.9761200   8.0720310
  51.0727806 165.8277588   6.5703349  50.6493225 165.8951721   5.5682144
  50.5985107 164.9751892   7.0564322  50.7754440 166.6901093   7.1670289
  53.6811180 169.2147369   4.9763112  54.8990593 169.2623901   4.8905773
  52.8862267 170.2265930   5.0553904  51.4790115 170.2540588   4.7409973
  50.9907112 169.6106262   5.4728894  51.4770813 170.0223541   3.6759100
  50.9922867 171.7070770   4.9531131  50.7658424 171.9780884   5.9843140
  50.1420822 171.9217682   4.3056822  52.2563896 172.4540558   4.5120969
  52.2391968 173.5037079   4.8053861  52.3895760 172.4848480   3.4307003
  53.3625412 171.5948486   5.1456170  54.3304367 171.6832275   4.6521912
  53.5534935 172.0159607   6.5960526  52.8811836 171.5930634   7.5323195
  54.3553886 173.0721283   6.7731462  54.7728424 173.4671173   5.9425983
  54.2923279 173.9828186   7.9303622  54.3831825 173.4363556   8.8690977
  55.3964081 175.0488586   7.7781849  55.2764740 175.5613861   6.8237042
  55.3231125 175.7007751   8.6486692  56.7810326 174.3700409   7.8489180
  56.7809029 173.4978485   7.1951833  57.6146088 175.0144196   7.5695791
  57.0438957 173.8573456   9.2641373  57.6981201 174.6060333  10.0443773
  56.6766167 172.7216034   9.5882969  52.9273338 174.7852020   7.9313316
  52.5461235 175.4503326   6.9956307  52.2352600 174.7996674   9.0606604
  52.6272430 174.3744202   9.8886843  50.9733047 175.6329041   9.2860193
  50.5119591 175.6778870   8.2994928  49.9914322 174.9762573  10.2528267
  50.4511986 174.7103577  11.2046728  49.2257118 175.7324829  10.4257717
  49.4880714 173.6398621   9.6973848  49.0288925 173.7472687   8.7146740
  50.3057938 172.9208374   9.7466621  48.4110794 173.1006165  10.6447525
  48.1889458 172.0801392  10.3326740  48.7212067 173.0114594  11.6858931
  47.1047821 173.7674866  10.6169214  46.6563950 173.5636749   9.7351551
  46.3759499 174.3412781  11.5852737  46.8005333 174.4743042  12.7977400
  47.7849159 174.3417511  12.9808235  46.1985855 174.9016418  13.4870481
  45.2347183 174.8719940  11.4032412  44.8377380 174.8510742  10.4747648
  44.7306175 175.2697601  12.1828318  51.2886200 177.0377808   9.7113285
  51.1726723 177.3881226  10.8748465  51.7250862 177.8033447   8.7470970
  51.7524948 177.4200592   7.8130479  52.4282684 179.0579529   9.0438051
  53.1093864 178.9135132   9.8824453  53.2478333 179.5504761   7.8318882
  52.5938568 179.7681274   6.9874673  53.9637070 180.9115753   8.1724472
  54.2740555 180.9213867   9.2172880  54.8511543 180.9922943   7.5447373
  53.1987000 181.6734619   8.0228062  54.2906685 178.4815826   7.4904103
  53.8579636 177.6312408   6.9633789  55.0622215 178.8105621   6.7942877
  54.9074516 178.1689148   8.3329782  51.3041763 180.0993347   9.3973703
  50.4546432 180.3153534   8.5900030  51.3349075 180.7662811  10.5842505
  52.1555099 180.6693878  11.1650457  50.3119049 181.6816559  11.1378126
  49.4188385 181.4631195  10.5523424  50.1541824 181.3325653  12.6238499
  51.0877419 181.4326935  13.1775122  49.3977776 182.0085144  13.0226831
  49.6924362 179.9246674  12.9303532  50.4603386 179.1825867  12.7118454
  49.2123985 179.7715607  14.4021711  48.3353081 180.3744049  14.6375408
  48.9473610 178.7359467  14.6151371  50.0110054 180.0801544  15.0767756
  48.3607750 179.6402893  12.2217417  48.5125389 179.6013489  11.1430569
  48.0255470 178.6346893  12.4756660  47.6380310 180.4461517  12.3495550
  50.7645302 183.1405945  10.8935509  51.9437790 183.4781494  11.0246830
  49.7952576 184.0710754  10.6848488  48.3736420 183.7828827  10.4613266
  47.9547768 183.0261841  11.1246872  48.4207802 183.5234833   9.4036942
  47.6653748 185.1318512  10.6421852  47.3454285 185.1986542  11.6820278
  46.7995491 185.1782227   9.9816608  48.7493172 186.1242371  10.2472878
  48.5978737 187.0772400  10.7541866  48.8209648 186.2845917   9.1715298
  50.0557289 185.4750671  10.7214317  50.8962479 185.6623383  10.0531778
  50.4536018 185.9096680  12.1153078  50.1655350 185.2397003  13.1466789
  50.8640709 187.2276154  12.2612019  51.2265816 187.7865143  11.5020380
  50.9210167 187.7938385  13.6433926  51.6270370 187.2512665  14.2720709
  51.3118477 189.2680664  13.4347973  52.3079948 189.3726501  13.0048494
  50.6662941 189.8292236  12.7591782  51.2471733 189.8991241  14.6638603
  51.5327377 190.8037567  14.5165567  49.5060654 187.6710205  14.3296432
  48.4946747 187.7892151  13.6584854  49.3708229 187.4165192  15.6462545
  50.1605797 187.3536072  16.2726955  48.0334282 187.2965851  16.2747860
  47.5763702 186.3916168  15.8745108  48.2601700 187.0216675  17.7769966
  47.3177795 187.0223236  18.3247204  48.9588127 185.6750488  17.9599915
  49.8009911 185.5390320  17.2815113  49.3271790 185.6853180  18.9858074
  48.2689972 184.8610229  17.7372074  49.0989227 188.0894318  18.3127480
  48.6070404 188.7674103  18.7817802  47.1193886 188.4584503  16.2026253
  45.9156456 188.2720032  16.1587410  47.7262077 189.6494751  16.1969967
  48.7237930 189.6014862  16.0465908  47.0741920 190.9243774  16.2920876
  46.2923050 190.8611908  17.0488949  48.0364113 192.0417328  16.8257999
  48.7480125 192.2926025  16.0391655  47.3802147 192.9048615  16.9377213
  48.7498512 192.0014496  18.1667614  49.2657089 191.0413208  18.1542015
  49.4700394 192.8194275  18.1852989  47.7505646 192.1886749  19.7015305
  46.7963715 190.6202545  19.8831863  47.5221901 189.8601990  20.1723080
  46.0934601 190.8071442  20.6950283  46.1587830 190.2594147  19.0761127
  46.4975281 191.2643890  14.9316320  45.6196136 192.0669250  14.8142567
  46.9257660 190.6726532  13.7876091  47.5666428 189.8938751  13.8412123
  46.6014023 191.1392059  12.3837156  46.9396553 192.1753845  12.3798037
  47.3922501 190.3831177  11.3276901  47.5339470 190.9689178  10.4194775
  48.4072151 190.2711029  11.7090015  46.7479668 189.1410370  11.0717306
  46.7098732 188.8848267  10.1473360  45.0347061 191.1945648  12.1012249
  44.5752487 192.1014252  11.4267330  44.3040352 190.2198944  12.5574512
  44.7429047 189.4733734  13.0772600  42.8401222 190.0811920  12.4814205
  42.5154877 190.5500336  11.5524960  42.5376472 188.6293945  12.6521168
  42.7501144 188.4902802  13.7121248  41.5081673 188.4457703  12.3446217
  43.1681709 188.0356293  11.9903049  42.0461197 190.9452515  13.5075064
  40.8402977 190.9289703  13.5501204  42.8356323 191.7107697  14.3019609
  43.8439484 191.6868744  14.2488413  42.3005943 192.6310883  15.3889971
  41.2285805 192.6993256  15.2039757  42.4114189 192.0540009  16.8457623
  42.5262451 190.9830627  16.6783943  43.6947708 192.4758606  17.5938606
  43.5264320 193.5048981  17.9114151  43.8719139 191.8817596  18.4903889
  44.6025925 192.3308563  17.0082550  41.1145325 192.2470551  17.6844311
  40.3194160 191.6310883  17.2643547  41.3071518 191.9071045  18.7019901
  40.9423714 193.3217316  17.7440109  42.7329445 194.1348267  15.3390589
  41.9256935 195.0506592  15.6608171  43.9091454 194.3572845  14.8004093
  44.4487877 193.5057678  14.7387371  44.6059608 195.6763916  14.8250628
  44.2685814 196.2730713  15.6725559  46.0893669 195.3648987  15.0850229
  46.5544090 196.2662659  15.4842577  46.1706123 194.6047363  15.8619757
  46.8296127 194.8719025  13.8663740  46.3376694 193.9436188  13.5758781
  46.6116371 195.5274658  13.0232754  48.3553276 194.8007660  13.9263496
  48.9830284 194.8468628  14.9909840  49.0822945 194.7506409  12.8176966
  50.0690079 194.9497223  12.9005089  48.6151237 194.8502197  11.9277906
  44.3326340 196.6037750  13.6218901  45.1978722 197.3847809  13.1898565
  43.1824913 196.4770508  12.9734297  42.4651260 195.8488464  13.3063641
  42.8521767 197.3566132  11.8236313  43.7379570 197.5876617  11.2319355
  41.8394775 196.6509705  10.8325281  40.8433037 196.6459351  11.2749214
  41.7944641 197.3375397   9.9871311  42.3565407 195.2410889  10.3530769
  43.4290390 195.1872559  10.1661263  41.8690376 194.1243591  11.3162432
  40.8079262 194.2483826  11.5324965  42.0556183 193.2139282  10.7466726
  42.4793701 194.0882111  12.2186241  41.6378212 194.9375458   9.0745335
  41.8899345 195.6292114   8.2707071  41.7733040 193.8916168   8.7992773
  40.5873070 195.1517487   9.2711058  42.3456383 198.6510925  12.3802118
  41.1716385 198.9942780  12.3275719  43.2517433 199.4647675  12.9143219
  44.1959343 199.1368561  12.7691565  43.0440216 200.8817902  13.2716780
  42.2984772 201.3115540  12.6026678  42.4254837 200.9048615  14.7072191
  42.0802116 201.9335938  14.8100643  41.5388908 200.2709961  14.6907139
  43.5503502 200.5302887  15.7083263  44.2920837 199.8685913  15.2610149
  44.0874748 201.4153137  16.0494003  43.0205574 199.6519012  16.8707047
  43.3618507 198.4596405  17.0041924  42.1457787 200.2149811  17.6498337
  41.7778625 199.6084747  18.3687840  41.9416847 201.1743164  17.4087715
  44.3304596 201.6418610  12.9271383  45.2824707 201.0623627  12.4366093
  44.3408470 202.9155731  13.2098722  43.5246887 203.3462067  13.6204119
  45.4662361 203.7934418  12.9298906  45.5790138 203.7172699  11.8484192
  45.1123352 205.2318878  13.2661829  45.9001617 205.8784180  12.8796206
  44.1660843 205.5160522  12.8057985  45.0053711 205.4676514  14.6409235
  44.4698792 206.2630463  14.6877661  46.8151970 203.3502502  13.5663385
  47.8920174 203.8231354  13.0669270  46.8543434 202.5873413  14.6432838
  45.9812355 202.4174194  15.1217232  48.0376968 202.1106110  15.3559732
  48.7231827 202.9349213  15.5527267  47.6678314 201.6178131  16.7502041
  46.8052292 200.9570007  16.6645298  48.5269165 201.0757141  17.1454144
  47.3195419 202.6689911  17.7505569  48.0089226 203.5076599  17.6531124
  45.9146004 203.3856659  17.6839275  45.1328468 202.6896973  17.3796062
  45.7088242 203.9163818  18.6134892  46.0637283 204.1199493  16.8922920
  47.4661522 202.0254364  19.1002789  48.5343933 201.8497009  19.2271461
  47.0994492 202.7235107  19.8528156  46.9346733 201.0816193  19.2221298
  48.8306007 201.0093689  14.5817337  49.9549789 200.6043701  14.9932756
  48.3301430 200.4589844  13.4676056  47.4600906 200.8043213  13.0883207
  48.9479828 199.2094269  12.8526115  48.9366684 198.4562988  13.6405058
  48.0871506 198.7603455  11.6320009  48.4994698 197.8082275  11.2980051
  47.1032410 198.6409912  12.0856314  48.0992088 199.7317963  10.5819101
  48.1347504 199.2415924   9.7572718  50.3948402 199.3888092  12.3340912
  51.2965889 198.5731354  12.5378895  50.6365471 200.5742798  11.6958609
  49.8591690 201.2064819  11.5689116  51.8813019 201.0981903  11.0349340
  52.2281456 200.4460297  10.2333851  51.4627342 202.3907928  10.2426195
  52.2805862 202.7004700   9.5919905  50.7004852 202.0798798   9.5281868
  50.8069344 203.4141998  11.1135902  49.7599716 203.1898193  11.3175793
  51.2977676 203.5786285  12.0728350  50.7264900 204.7420044  10.3469524
  51.7168617 205.0705872  10.0318403  50.1200371 204.5327454   9.4657431
  50.0839806 205.7720184  11.1834507  49.7159195 205.5603333  12.0998659
  49.8668861 206.9856110  10.8299007  50.4941902 207.6463470   9.8795805
  50.9220657 207.0931549   9.1508818  50.2052040 208.5879364   9.6559620
  49.0649261 207.6589203  11.6140862  48.5087624 207.1675415  12.2991581
  48.9353828 208.6476135  11.4534330  53.0969391 201.4046326  11.9867249
  54.1219368 201.8583221  11.4001446  53.0321999 201.2117157  13.3303185
  52.3055267 200.6306915  13.7233362  54.2784119 201.3529205  14.1104136
  54.7808914 202.2589874  13.7717714  53.8946152 201.5184479  15.5899105
  53.5906448 200.5078888  15.8628168  54.7762222 201.7549133  16.1856899
  52.8165550 202.5159454  16.0246239  53.1190109 203.4836273  15.6243801
  51.8362617 202.2151489  15.6549606  52.7516556 202.5545654  17.6008263
  51.7218590 202.7716522  17.8845463  53.0028687 201.5591125  17.9669609
  53.5682716 203.5531006  18.3220940  54.0734596 204.1769257  17.7091274
  53.5336990 203.8314362  19.5993462  52.6518478 203.3218384  20.3775902
  52.0449677 202.6239014  19.9717960  52.5370331 203.5311584  21.3589687
  54.3140869 204.7782288  20.0966282  54.9053764 205.2991028  19.4648399
  54.2002716 205.0229645  21.0698967  55.2063026 200.1383667  13.8906746
  55.0201035 198.9790649  14.3541307  56.1021690 200.3596497  12.9538450
  56.2100830 201.2963715  12.5919104  56.8300819 199.2760468  12.2249022
  56.2330627 198.3654175  12.2741184  57.0581093 199.7002563  10.7953959
  56.1858978 200.1755219  10.3465357  57.9010925 200.3912506  10.7995491
  57.4396248 198.6119690   9.8211393  58.5039749 198.7549896   8.8801212
  58.5279617 197.6434326   8.1219788  59.0942841 197.5469055   7.2074509
  57.5805550 196.7948456   8.4714317  57.2825317 196.0094147   7.9107308
  56.8377838 197.3934631   9.5203047  55.9064484 197.0404510   9.9379129
  58.1093140 198.8972778  12.9905701  58.6832657 199.6430664  13.7901278
  58.6577721 197.7481537  12.6966352  58.2901764 197.2690125  11.8870649
  59.8392220 197.1420898  13.3865490  59.7634315 197.3901672  14.4452333
  59.7341156 195.5983887  13.2255554  60.6759224 195.2156525  13.6187792
  58.6051102 195.0261078  14.0987606  57.5998039 195.2382660  13.7348261
  58.7696686 193.9491730  14.1337414  58.7448959 195.4085846  15.1098394
  59.5907669 195.1465454  11.7557297  58.5585327 195.1925507  11.4086266
  60.1725044 195.8446960  11.1538391  60.2118492 193.7927246  11.5857706
  59.7037010 193.0848999  12.2406578  60.0870667 193.5448151  10.5316944
  61.2710266 193.7904205  11.8431273  61.2261353 197.7616577  12.9474440
  61.3401947 198.4345551  11.9085817  62.4239273 197.6246490  13.5318804
  63.0565262 198.2184753  13.0148888  63.0291862 196.7248688  14.4267254
  63.9777412 197.1932983  14.6892719  62.3746681 196.6065216  15.8038950
  61.4790077 195.9857483  15.7807894  63.0945740 196.0731506  16.4246655
  61.9388275 197.9162292  16.5711708  62.8538742 199.0524292  16.6099091
  63.7927399 199.0103760  16.0777817  62.5385780 200.2128601  17.2625008
  63.1385269 201.1106110  17.2403584  61.3553085 200.2593689  18.0511036
  61.0851059 201.1930847  18.5217915  60.4809685 199.1486053  18.0836029
  59.5855598 199.2098389  18.6843491  60.7285042 198.0086517  17.3101330
  60.0705299 197.1522369  17.3044014  63.5674019 195.5014038  13.6254539
  63.9520988 195.6385345  12.4880686  63.7703552 194.2899170  14.2817802
  62.8730621 193.6879120  15.3247862  61.8289986 193.9589386  15.1680374
  63.2070274 194.0238647  16.3064690  63.0167084 192.2307587  15.1219778
  62.3717995 191.8739929  14.3189087  62.7150459 191.6638489  16.0027275
  64.4682846 192.1087646  14.7359743  64.5978699 191.3733063  13.9419842
  65.0866318 191.8079987  15.5817280  65.0129929 193.4807587  14.3140078
  65.5464096 193.9422150  15.1450453  65.8098450 193.4445190  13.0305538
  65.2741165 193.3238678  11.8768740  67.1644135 193.4373474  13.0777521
  67.6523972 193.5090027  12.1963654  68.0277100 193.9763184  14.2072649
  68.9698029 194.0550690  13.6647177  68.1782684 193.0247192  15.4310389
  68.6784058 193.5586700  16.2390366  67.2036133 192.7704315  15.8475380
  68.8902969 191.8710327  15.1203756  69.0348740 191.4252014  15.9581890
  67.6722412 195.3881683  14.6998701  66.6380157 195.9720001  14.3470469
  68.5654907 196.0739136  15.4998055  69.3383865 195.5613708  15.8998404
  68.1908722 197.2910461  16.2018299  67.4192734 197.6675873  15.5303049
  67.4762268 196.8236389  17.5285282  66.8909149 195.9264221  17.3272152
  68.2535172 196.6297150  18.2676582  66.5150452 197.7130890  18.0582809
  65.6516113 197.6882019  17.6393929  69.2817993 198.3893585  16.4313087
  69.3827133 199.0147095  17.4577370  70.3448105 198.5812836  15.6141891
  70.9580383 199.3411407  15.8724079  70.8369751 197.9162903  14.4140406
  71.7438812 198.4941864  14.2361393  69.8863449 198.1869049  13.2125130
  68.9925385 197.5697021  13.3035660  69.5731659 199.2307129  13.2340145
  70.4517212 197.8214417  11.7949209  70.2994003 196.7495575  11.6686211
  69.8052979 198.3658600  11.1065464  71.9447403 198.1320343  11.5735197
  72.5865173 197.7103271  12.3470707  72.2870255 197.6527710  10.6563158
  72.2791367 199.6161652  11.5061817  71.4685669 200.2326813  11.8947420
  73.2451477 199.7471771  11.9937878  72.3878632 200.0634003  10.0935526
  71.5748138 199.8119354   9.5496683  72.6080399 201.0483856  10.0558243
  73.2259140 199.7398071   9.6319771  71.5226212 196.5231476  14.6168823
  71.6166306 195.7179565  13.6914120  72.0609131 196.1988525  15.8476906
  71.6301804 196.5818176  17.2305279  70.5536652 196.5510254  17.3986702
  71.9555435 197.6167755  17.3358383  72.1693192 195.6057587  18.2439156
  71.4475403 195.1882019  18.9459038  72.9564133 196.1332245  18.7827702
  72.7557907 194.5388947  17.3503494  73.6062088 194.0737457  17.8488865
  71.9766083 193.7893677  17.2118416  73.1160736 195.2130585  16.0340958
  73.1553574 194.4619446  15.2451820  74.5192184 195.7902832  16.1642075
  75.4960861 195.0809937  16.4198380  74.6271210 197.1110535  16.2022781
  73.8056488 197.6581879  15.9879417  75.8508453 197.8792114  16.2948494
  76.4281311 197.7032318  15.3871717  75.5080261 199.3658752  16.3690929
  74.7825012 199.5521088  15.5772448  75.1947327 199.7129974  17.3537025
  76.7239304 200.2851257  16.1165562  77.3435669 200.0370026  16.9782887
  77.1049500 200.0872498  15.1146679  76.4624786 201.8106995  16.3005657
  75.9131317 202.0300293  17.2161007  77.4500046 202.2719421  16.3121872
  75.7081680 202.4098053  15.1781101  76.2180176 202.0995331  14.2660294
  74.7085495 201.9790039  15.1207304  75.6207657 203.9359741  15.3808413
  76.5095139 204.3960419  15.5170555  75.1525803 204.3572845  14.5912828
  75.1438522 204.3262634  16.1810455  76.6393661 197.4353027  17.5176010
  77.8751678 197.4135742  17.4063110  76.0333557 197.0306549  18.6245346
  75.0256577 197.0145111  18.5582581  76.6772461 196.8899078  19.9656849
  77.5845947 197.4866943  19.8725491  75.8706512 197.4773254  21.1607189
  76.5269165 197.4079437  22.0282478  75.7325668 198.9853363  20.9000130
  75.0152359 199.1970825  20.1071110  75.4051743 199.4231720  21.8429985
  76.7282104 199.3324738  20.6237869  74.5745163 196.7458344  21.4652863
  74.7940826 195.6828003  21.5644226  74.0591049 197.1203613  22.3496971
  73.8656387 196.9351501  20.6592140  77.2011261 195.4628601  20.3510475
  77.3594131 195.1771088  21.5647488  77.3912582 194.6247101  19.3258438
  77.1432877 195.0329742  18.4359417  77.9874420 193.2446442  19.3010502
  77.9160767 192.7968140  18.3098564  79.5088425 193.4575653  19.6866188
  79.5483780 193.7462616  20.7369461  80.1758118 192.6014862  19.5846939
  80.2937469 194.4580841  18.8907413  81.2260208 195.3751678  19.3467903
  81.5260162 195.5335083  20.3721352  81.9217987 195.8773804  18.2094917
  82.6673889 196.5536346  18.2923737  81.4351349 195.2756653  17.0599594
  81.9590912 195.2057037  15.7613630  82.8386536 195.7820740  15.5152597
  81.4319305 194.4645996  14.7447863  81.7994614 194.5900269  13.7370214
  80.2251968 193.7678680  15.0767078  79.6711807 193.1848907  14.3558731
  79.7544022 193.6864014  16.4321823  78.9157333 193.0653534  16.7102718
  80.4061508 194.4048462  17.4399776  77.3422928 192.1404266  20.2022877
  77.8616333 191.0331268  20.1349850  76.3216705 192.4450073  21.0613289
  76.0558395 193.4135132  21.1682205  76.0361557 191.6513672  22.2438240
  76.8409882 190.9382019  22.4219971  74.7865143 190.7370758  22.0209141
  74.1397400 190.7358246  22.8982849  74.2363586 191.1664276  21.1836071
  75.0206451 189.1933289  21.8697224  74.0440445 188.7154541  21.9471378
  75.4163895 189.0300140  20.8673210  75.9969864 188.4834595  22.8239613
  76.4674225 189.0762787  23.7893047  76.3691559 187.2090302  22.5968437
  76.8882446 186.6736755  23.2780457  76.0402527 186.6561432  21.8182220
  75.8193436 192.4444122  23.5625286  74.8528366 193.1745758  23.6225986
  76.6502457 192.1360016  24.5793610  77.2360382 191.3183441  24.4876366
  76.5323792 192.6883850  25.9583683  76.2228394 191.8516541  26.5845985
  77.9574051 193.0251312  26.5398502  77.9564209 193.5519104  27.4941082
  78.3930740 192.0341339  26.6672058  78.8788910 193.6747589  25.5179482
  78.8750916 194.9487305  25.4360752  79.5976639 192.9376984  24.7520199
  75.5574646 193.8408203  26.1889706  75.6949081 194.9470215  25.5822144
  74.6010284 193.6020660  27.1055450  74.8151169 192.7657471  27.6297817
  73.5455704 194.4685059  27.6649551  72.7063675 193.9221344  28.0954342
  74.1350098 195.2743683  28.8914471  73.4400940 195.9678802  29.3649750
  74.2740326 194.5441589  29.6886730  75.4721375 196.0313110  28.8536758
  75.8043060 196.0061340  29.8915253  76.1759567 195.4964142  28.2159977
  75.4608612 197.5089417  28.4568672  74.4924545 197.9246979  28.7351131
  76.2392197 198.0595703  28.9851379  75.6537704 197.6166992  26.9607124
  74.7972107 197.6297760  26.4257050  76.8195267 197.6803894  26.3025188
  78.0156479 197.8139954  26.9060383  78.1496201 197.7635498  27.9058399
  78.8652573 197.7352600  26.3656139  76.7597198 197.6197968  24.9655533
  77.6336136 197.7216797  24.4695377  75.8837051 197.4500885  24.4923801
  72.8181000 195.3373871  26.6865253  72.4199905 194.8622284  25.6235466
  72.4524460 196.5881348  26.9979496  72.5454712 196.7899780  27.9831924
  71.7175217 197.5318909  26.1629620  71.7204208 198.4764862  26.7068787
  72.5132523 197.7363586  24.8410797  72.5966339 196.8576965  24.2014503
  72.0530014 198.5324554  24.2558441  73.5543442 197.9579468  25.0758610
  70.2105942 197.3587952  25.9380360  69.3429947 198.1521301  26.2245178
  69.8217010 196.3307037  25.1524944  70.4798737 195.6186371  24.8698845
  68.4154205 196.1006165  24.7088585  67.9846115 197.0907898  24.5603027
  68.3719177 195.4279938  23.3075294  67.3623505 195.0818176  23.0860577
  68.5455170 196.1977539  22.5555820  69.3510284 194.2749634  23.0778999
  69.1625900 192.9624023  23.5560246  68.3050385 192.7371063  24.1726665
  69.9954224 191.9394684  23.0880318  69.8632889 190.9364319  23.4659691
  71.0863800 192.2020569  22.1835613  71.6664658 191.4111786  21.7314415
  71.3428192 193.5969696  21.8571568  72.1007767 193.8880463  21.1449909
  70.4545746 194.5892029  22.2086506  70.6535568 195.6210938  21.9596748
  67.4149704 195.4574280  25.7561493  66.3332596 195.0672913  25.4004307
  67.8129272 195.4501801  27.0635338  68.6888580 195.8783875  27.3270969
  66.9637375 194.9892120  28.1760426  66.6618958 193.9633942  27.9645786
  67.7336273 195.0804138  29.5178204  67.9671936 196.1288757  29.7029648
  67.0096970 194.8798218  30.3076229  69.0415268 194.2575531  29.6519852
  68.8494797 193.2619019  30.0518913  69.5172577 194.2619171  28.6712933
  69.9982147 195.0995636  30.5830956  70.8504028 194.4735107  30.8475666
  70.3103180 195.9939880  30.0439396  69.3870926 195.5014343  31.8918228
  69.1200562 194.7721100  32.5374718  69.3339462 196.6985321  32.4120483
  69.4996033 197.8175354  31.7774029  69.8554459 197.8671570  30.8334675
  69.4312363 198.6594086  32.3311691  69.0277176 196.7830505  33.6804619
  69.0608978 195.9668274  34.2744217  68.8226624 197.6391449  34.1755905
  65.6167831 195.7502594  28.1216202  64.5918350 195.1175842  28.0254478
  65.6492996 197.0975342  28.1885586  66.5813599 197.4566498  28.3382149
  64.5708313 198.0121002  28.0352020  63.8096428 197.8386841  28.7958698
  65.0268555 199.4350128  28.2984257  65.9326630 199.6137390  27.7190609
  64.2568665 200.1667633  28.0539417  65.4830322 199.7241669  29.8074932
  64.7418594 199.1781158  30.3910961  66.3984299 199.1654663  30.0024548
  65.5838089 201.1988220  30.2199707  65.8172760 202.1234741  29.4277382
  65.2581635 201.4225311  31.4558430  65.2286377 202.3799438  31.7761135
  65.1419144 200.6794281  32.1299286  63.8925858 197.8961182  26.6692238
  62.6582260 197.7664642  26.5616302  64.6135864 197.6651459  25.5536709
  65.6182404 197.7477570  25.6164436  63.9836273 197.4274445  24.2522659
  63.2495728 198.2135468  24.0753441  64.9985886 197.5647125  23.1383057
  65.3171463 198.6069794  23.1553879  65.8968048 196.9496460  23.1931419
  64.3220139 197.2874451  21.8013535  63.7557716 198.2326508  21.0210247
  63.5697212 199.2454834  21.3465519  63.0140076 197.6186676  20.0383911
  62.3796959 198.1567383  19.4654808  63.1663666 196.2421265  20.0390186
  62.6507759 195.2556000  19.1561584  62.0138550 195.6140747  18.3610268
  63.0142860 193.9026642  19.4012375  62.5899582 193.1258698  18.7824154
  63.9198151 193.6453857  20.4642677  64.1724243 192.6162567  20.6728115
  64.4501953 194.6466217  21.3235092  65.1943512 194.3592987  22.0515804
  64.0807266 196.0049744  21.1122437  63.1493530 196.1186981  24.1140041
  62.0344543 196.1746063  23.6010494  63.5937881 194.9976196  24.6235561
  64.5186920 194.9750519  25.0287037  62.7726479 193.7365112  24.6903439
  62.5582504 193.5252991  23.6427135  63.6032333 192.5326080  25.1727161
  64.3483810 192.9647827  25.8406010  62.9699326 191.8525391  25.7424030
  64.2433319 191.7989960  24.0665474  65.5141754 191.8009338  23.6014671
  66.3445663 192.3052979  24.0731335  65.5995026 191.1227570  22.4133472
  66.3793106 191.1213684  21.7714710  64.4288712 190.6252136  22.0190468
  63.9647408 189.9237976  20.8618088  64.6583405 189.6828156  20.0698204
  62.5744514 189.5904694  20.7637959  62.1795998 189.0587158  19.9107208
  61.7051697 190.0505676  21.7524700  60.6387901 189.8891907  21.6959686
  62.1783066 190.8218384  22.8456898  61.4402542 191.0446777  23.6020107
  63.5425529 191.0204773  23.0381165  61.5035400 193.8799438  25.4746304
  60.5307236 193.2533417  24.9963398  61.3912010 194.7653351  26.5389385
  62.2317047 195.2201080  26.8657837  60.0942726 195.0631714  27.1500778
  59.5770531 194.1230774  27.3419285  60.3321381 195.7851562  28.4865742
  60.9233055 196.6920319  28.3593197  59.4130325 196.2332001  28.8642063
  60.9502106 194.9097900  29.5874500  60.3111420 194.0472717  29.7765293
  61.9262810 194.5563507  29.2550640  61.1592255 195.6798859  30.9086227
  61.3437881 196.9047089  30.9041824  61.3308830 195.1182404  32.1106262
  61.6338310 195.7264252  32.8579102  61.2943993 194.1261749  32.2965126
  59.2669258 195.8820953  26.1816120  58.1643448 195.5430145  25.9027271
  59.8955688 196.9709930  25.7031269  60.9053764 196.9800720  25.6856823
  59.2202530 197.9962006  24.9346390  58.3816261 198.3421173  25.5389137
  60.1457901 199.1873932  24.6374569  60.9045792 199.3731689  25.3976059
  60.6576080 199.0413361  23.6862392  59.2540092 200.4521179  24.4937649
  58.3745689 200.2084503  23.8976860  58.8509216 200.7941742  25.4469795
  60.0371094 201.5614777  23.8214741  60.9001846 201.8693390  24.4117451
  60.4737320 201.1797333  22.8985844  59.2121429 202.9230804  23.5615082
  59.9383736 203.6543427  23.2066250  58.3997650 202.6617889  22.8833656
  58.6037788 203.5666809  24.7274990  59.2590485 203.7939911  25.4616966
  58.2391090 204.4794617  24.4952641  57.8685989 203.0037842  25.1309433
  58.6510696 197.3912964  23.6916065  57.5964012 197.8544922  23.2427540
  59.3737373 196.6049652  22.9836216  60.2794724 196.3411255  23.3443661
  58.9325523 195.8506317  21.7824421  58.7078667 196.5190430  20.9512691
  60.0879974 194.9907990  21.2367268  60.7486877 195.6889648  20.7227592
  60.6923714 194.5821838  22.0465813  59.8149872 193.8257751  20.2163239
  59.7473259 194.1320953  18.8369389  59.9277916 195.1182861  18.4353676
  59.3918991 193.1658630  17.8901596  59.3125153 193.3891754  16.8364830
  59.0211143 191.8567047  18.2759418  58.3457718 191.0047455  17.3926182
  58.1759262 191.4008484  16.5347939  59.0308228 191.5647125  19.6647301
  58.6169281 190.6301422  20.0135460  59.4093285 192.5102539  20.6384296
  59.4497299 192.2586823  21.6879444  57.6878357 195.0639496  22.1017609
  56.6456718 195.3824310  21.5488033  57.6988487 194.2822723  23.1597843
  58.5901222 194.0603638  23.5798969  56.4763908 193.6457367  23.6472416
  56.0705948 192.9193420  22.9431267  56.7992363 192.7698364  24.8888092
  57.4056625 191.9732361  24.4578133  57.5116692 193.2918854  25.5275631
  55.5868835 192.2875061  25.7448902  54.9819832 193.1711121  25.9484348
  55.0463829 191.5325775  25.1738911  56.0427437 191.7150574  27.1045513
  56.0327301 190.5294495  27.3229942  56.3730507 192.5631256  28.0409164
  56.7632332 192.2348175  28.9127369  56.1910667 193.5402832  27.8616161
  55.3390198 194.6262512  24.0099659  54.1813049 194.3040009  23.6151066
  55.6274834 195.7456970  24.7193584  56.5664482 195.8239899  25.0831013
  54.5709763 196.6937408  25.1522293  53.8376503 196.0992126  25.6970711
  55.2002068 197.6428070  26.1536140  55.5879517 197.0130310  26.9543228
  56.0365028 198.1908875  25.7196712  54.1833725 198.6372375  26.7265835
  53.7444496 199.1667786  25.8809853  53.3279686 198.1101379  27.1491375
  54.8945923 199.5602417  27.7064705  55.4521484 198.9217072  28.3916779
  55.5740013 200.2644958  27.2263260  53.7646141 200.4217224  28.3122520
  53.2789154 200.9707947  27.5055866  53.0157509 199.8105927  28.8160610
  54.2641792 201.4256744  29.4096451  55.0520439 202.0085144  29.1653595
  53.5186958 202.0800323  29.5998325  54.4785118 200.9868164  30.2937088
  53.9324913 197.4104614  23.9396610  52.7493973 197.7095947  23.9302311
  54.7163658 197.5948181  22.8596973  55.7006111 197.4682159  23.0476818
  54.3816528 198.2644348  21.6117611  53.7339439 199.0885773  21.9107113
  55.6439438 198.8991547  20.9799004  56.0246735 199.4820557  21.8185730
  56.2683449 198.0473022  20.7105522  55.3518639 199.7540131  19.7451439
  54.9511185 199.0641022  19.0024872  54.6081390 200.5251770  19.9458408
  56.5092468 200.4964447  19.0635281  57.4160461 199.9062958  19.1959763
  56.3115959 200.5191040  17.9918365  56.8145981 201.8717804  19.6086349
  56.3343658 202.1658936  20.4470730  57.5928116 202.7852325  19.0700016
  58.2291794 202.5694580  17.9259796  57.9567490 201.8313599  17.2926579
  58.6258278 203.3240204  17.3843193  57.8526573 203.9677124  19.5746670
  57.5267410 204.2777252  20.4789734  58.3966980 204.6382294  19.0507107
  53.5563354 197.4264832  20.6566219  52.5573921 197.9543610  20.0901947
  54.0518456 196.1870728  20.5124378  54.9325562 195.9120026  20.9232693
  53.4521866 195.2820435  19.5390778  53.2709541 195.8155975  18.6060295
  54.5013466 194.1446838  19.2832680  55.4066277 194.6551208  18.9545937
  54.7046967 193.6626434  20.2395020  54.0554543 193.1070862  18.2435017
  53.2033653 192.6008759  18.6971416  53.7364120 193.6067657  17.3288250
  55.2279243 192.1669464  17.7621918  56.0656319 192.7897949  17.4484921
  55.6187553 191.6665802  18.6481857  54.8517952 191.1065369  16.7420692
  55.6151848 190.3298340  16.6964779  53.9571495 190.5711975  17.0600834
  54.5423737 191.7341614  15.4171848  55.1985092 192.4618378  15.1721249
  54.5322380 190.9799194  14.7455263  53.6226959 192.1503601  15.4499855
  52.1753998 194.7411041  20.1403694  51.1849060 194.7076263  19.4069977
  52.0613747 194.3721313  21.4034653  52.7847862 194.5457916  22.0865574
  50.8585052 193.6262817  21.8990078  50.2822838 193.2973938  21.0341892
  51.1559410 192.2438812  22.5990906  51.6386986 192.4906921  23.5446758
  50.2040062 191.7319641  22.7400036  52.1329346 191.3956146  21.8205223
  51.6578560 190.6612854  20.7141647  50.6281662 190.7512970  20.4010620
  52.5344276 189.8759155  19.9303036  52.1982841 189.1992035  19.1586342
  53.8805008 189.7785797  20.3006935  54.5570602 189.1309052  19.7629395
  54.3816338 190.4500427  21.4442406  55.4145050 190.4472656  21.7597809
  53.5209808 191.3145905  22.1049213  53.9718323 191.9933472  22.8137379
  49.8811569 194.5505219  22.5820065  49.0611534 194.1191406  23.3584347
  50.0463219 195.8815460  22.4094028  50.7948952 196.2229309  21.8235703
  49.1572838 196.8296356  22.9181881  49.1882172 196.7165375  24.0018654
  49.5533485 198.2604523  22.5397453  50.4069366 198.5348969  23.1595573
  49.9522705 198.3206635  21.5271549  48.4688225 199.3592377  22.5596275
  48.0670738 199.9836273  23.7336998  46.9536819 200.6765747  23.3935013
  46.4700623 201.3825378  24.0523872  46.6193733 200.4486694  22.0864296
  45.8144875 200.8753815  21.6503296  47.5858803 199.6562653  21.5359631
  47.6348038 199.1744537  20.5706329  47.7105789 196.5354156  22.4414501
  46.7400665 196.7203217  23.1995220  47.4812050 196.1274872  21.1842270
  48.2830124 195.9525299  20.5955067  46.1566696 195.7584686  20.6963539
  45.5249443 196.6359253  20.8345928  46.1826210 195.6735687  19.2268047
  46.9342537 194.9635468  18.8818035  45.2516785 195.2893066  18.8099232
  46.5730438 197.3547058  18.5482159  45.3838463 197.5599365  17.9749947
  45.4012260 194.6033325  21.3368111  44.1925659 194.4412994  21.1321793
  46.0014038 193.8069458  22.1796341  46.9576988 194.0666504  22.3749752
  45.4328995 192.8247833  23.0229568  44.9706535 192.1425934  22.3094788
  46.5564995 192.0960083  23.6767845  47.0870323 192.7935638  24.3248978
  46.0984535 191.2836609  24.2410336  47.1169395 191.7208710  22.8204689
  44.3763161 193.3800507  24.0295200  43.4972687 192.5878143  24.3593407
  44.2917976 194.6811676  24.3346901  44.8652420 195.3998718  23.9166985
  43.1616783 195.2966461  25.0871487  43.1519012 194.7155609  26.0092888
  43.4600296 196.8293915  25.3558159  42.6052361 197.2200623  25.9079094
  44.3580208 196.9279022  25.9657383  43.5866699 197.5996704  24.1875477
  43.6663933 198.5254669  24.4287014  41.7657661 195.0438690  24.5145836
  40.7994423 195.1315460  25.3506718  41.5613174 194.8458862  23.1896534
  42.3935547 194.6555786  22.6499672  40.3435287 194.4143524  22.5572319
  39.5878372 194.9353943  23.1450748  40.3402481 194.7028046  21.0841331
  41.0372810 193.9646301  20.6874638  39.3289642 194.5574799  20.7042675
  40.7768822 196.1591339  20.6733627  41.8570023 196.0703735  20.7898483
  40.4836044 196.4612274  19.2033958  39.3973618 196.5144653  19.1302376
  40.9896393 197.3764038  18.8960609  40.8429375 195.5697937  18.6892548
  40.1809578 197.2529602  21.5072460  40.4104652 196.9947357  22.5410500
  40.7206650 198.1392975  21.1737442  39.1039963 197.3895111  21.4092045
  39.9007187 192.9725647  22.8735981  38.7717400 192.5542450  22.5790024
  40.7642288 192.1498108  23.5129719  41.7255859 192.4492188  23.5920029
  40.5169106 190.7662659  23.9715157  39.4708252 190.4805450  23.8612041
  41.3206711 189.7473297  23.1407471  40.8321724 188.8015289  23.3751469
  41.3839188 189.9948425  21.6174335  41.9367828 190.8646240  21.2625504
  41.7912636 189.0880585  21.1703339  40.3836975 190.0526886  21.1881199
  42.6689949 189.6838226  23.5688152  43.1182556 189.1041870  22.9493103
  40.7456665 190.5579834  25.4704723  41.2625160 191.3770294  26.1796360
  40.3882790 189.3280029  25.9140511  39.9549866 188.6616516  25.2908878
  40.4551964 188.9880066  27.3140564  40.1024323 189.8407135  27.8941917
  39.5480576 187.7356415  27.5213661  39.5948677 187.4147949  28.5620213
  38.5360756 188.0822296  27.3119106  39.8897476 186.6841888  26.5732632
  39.1326599 186.1728363  26.2784176  41.8071136 188.6196747  27.9701500
  41.8137283 188.2610779  29.1428471  42.8755875 188.7102509  27.2301273
  42.8329201 189.0901794  26.2952843  44.2984085 188.2386932  27.5689602
  44.2160950 187.7651978  28.5472889  44.7661705 187.1856995  26.5230827
  44.9487267 187.7075806  25.5837116  45.7612190 186.8019714  26.7483234
  43.8489189 185.9712982  26.3472614  42.9811935 185.7323456  25.3343811
  42.7050476 186.3393707  24.4848728  42.2556190 184.6270599  25.6221848
  41.4302521 184.3419647  25.1146545  42.6078796 184.0840454  26.8271809
  42.2040520 182.9526062  27.5159206  41.4664536 182.2907562  27.0866127
  42.8630829 182.5316925  28.6797905  42.6515884 181.5389557  29.0487747
  43.7296333 183.4322357  29.3256760  44.2154465 183.2155151  30.2655773
  44.1094666 184.6345367  28.6579037  44.6976929 185.3347168  29.2324848
  43.6233673 184.9468536  27.3461742  45.3779602 189.3405457  27.7020130
  45.2865067 190.4172974  27.0603657  46.4019241 189.0760803  28.5330620
  46.5418625 187.9449768  29.4582386  46.5755463 186.9642944  28.9836750
  45.7823486 187.9326630  30.2399616  47.8868446 188.1415405  30.1009998
  48.6473808 187.6113892  29.5277462  47.8978348 187.7837372  31.1305370
  48.1313972 189.6168365  30.0847282  49.1975403 189.8402557  30.1237946
  47.6662178 190.1240540  30.9299717  47.4538307 190.0539551  28.8021336
  46.9864388 191.0287781  28.9413834  48.4802055 190.2422943  27.6707935
  48.7690620 189.3316803  26.8965454  49.2361374 191.4014740  27.7238903
  48.8999367 192.6287537  28.4291286  49.3780937 192.7153625  29.4048176
  47.8260498 192.7962799  28.5116291  49.5196342 193.7073517  27.5649490
  49.6782036 194.5661163  28.2172432  48.8717041 194.0575714  26.7614422
  50.8149605 193.1260834  27.0070362  51.5658302 193.1868286  27.7948227
  51.0395203 193.7148590  26.1176453  50.2660332 191.7105255  26.7148247
  49.9548988 191.7204590  25.6702213  51.4702950 190.6813660  26.7436943
  52.0708160 190.3244324  25.7558212  51.7860565 190.1073456  27.9040356
  51.4107132 190.5266571  28.7427292  52.7841911 189.1133118  28.1260796
  53.6083183 189.3583984  27.4561214  53.2318306 189.1114349  29.6239395
  54.0226135 188.3719940  29.7503242  53.7875061 190.0312500  29.8063717
  52.2922821 188.9056396  30.7856274  51.8632088 189.9128723  31.6070995
  52.1151848 190.9496002  31.4394093  50.9446297 189.4213867  32.5379524
  50.3528519 190.0161285  33.1002541  50.7636032 188.0505981  32.3129349
  49.9317360 187.1367493  33.0037651  49.2737427 187.4714203  33.7920799
  49.9551659 185.7933044  32.5550842  49.2554741 185.0853424  32.9741440
  50.8320618 185.3788147  31.5199184  50.8286972 184.3941040  31.0763817
  51.6483078 186.3091583  30.8631382  52.1253052 185.9531097  29.9619713
  51.6552429 187.6701202  31.2558861  52.4150658 187.6674347  27.5683937
  53.3158417 186.8445129  27.5021400  51.1512070 187.3839569  27.2128563
  50.4474335 188.1079407  27.1875477  50.8107224 186.0307312  26.7279854
  51.3778114 185.3288879  27.3394966  49.3166046 185.7434082  26.9507999
  48.9790993 185.9888763  27.9577427  48.8208733 186.4148560  26.2497292
  48.8950272 184.2868958  26.7048893  49.2586517 184.1065979  25.6932697
  49.4038162 183.3404083  27.7480888  49.1551781 183.5143127  28.7950096
  48.9101562 182.4062653  27.4801846  50.4758148 183.1486206  27.7942715
  47.4044418 184.1349792  26.4407406  47.1367836 184.8945007  25.7061787
  47.2361450 183.1601257  25.9830723  46.8252945 184.2943115  27.3503056
  51.3272743 185.9250488  25.2966347  52.1430397 185.1129456  24.9789257
  50.9384422 186.8328400  24.3887501  50.4014244 187.5971069  24.7729378
  51.2385559 186.7302246  22.9324169  50.8381233 185.7754669  22.5915279
  50.4203987 187.7778778  22.2080421  50.6812515 188.7604065  22.6013241
  50.6427650 187.6737976  21.1460514  48.9245872 187.5912628  22.3186264
  48.2892303 186.3637848  21.8706474  48.8637695 185.6398315  21.3119087
  46.8890839 186.1629486  22.1170082  46.3658829 185.3593445  21.6201191
  46.1509972 187.1959229  22.7008057  44.7698936 187.1695709  22.7387886
  44.4287910 186.5178375  22.1219368  46.8140411 188.3623810  23.1377316
  46.1791840 189.1286011  23.5575733  48.1829567 188.5817719  22.9441128
  48.6290131 189.4927979  23.3149071  52.7427559 186.7267914  22.5515079
  53.0893898 186.0833740  21.5495796  53.6358414 187.2879791  23.3777065
  53.2133522 187.8641968  24.0915585  55.1267891 187.0024109  23.2221069
  55.5149612 187.4400787  22.3023872  55.9041100 187.7495270  24.2715988
  55.7619514 187.4147034  25.2991161  56.9304581 187.5062103  23.9968281
  55.7153168 189.1082001  24.1363373  56.0552559 189.5310669  24.9283085
  55.5539551 185.5090942  23.3346825  56.4497566 185.1244354  22.6776257
  54.7317238 184.7214050  24.0361710  53.9293213 185.1972351  24.4232597
  54.8359375 183.2157593  24.1554871  55.8994370 182.9770203  24.1470203
  54.1637535 182.7895508  25.4856663  53.0888863 182.7594604  25.3071842
  54.4257698 181.7548523  25.7067394  54.5113869 183.5889130  26.8069019
  54.1149979 184.5953064  26.6722069  53.7763824 183.0645905  28.0744381
  54.2774811 182.1146240  28.2604294  53.8161087 183.8150635  28.8639336
  52.7364426 182.8034821  27.8783455  56.0051384 183.6925964  27.1309986
  56.4689827 184.4069366  26.4507961  56.2219391 184.0455017  28.1392422
  56.5173721 182.7606354  26.8919430  54.2064552 182.4143066  23.0119972
  54.2082367 181.1863098  23.0050564  53.7336502 183.1533966  22.0351868
  53.6994591 184.1521606  22.1815071  53.2958260 182.5641022  20.7468624
  53.6829567 181.5489197  20.6595001  51.7061920 182.3595734  20.8037090
  51.1411285 183.1974182  21.2121220  51.3189163 182.0665436  19.8278713
  51.2877998 181.1847076  21.6465855  50.9554253 181.4230652  22.9941063
  51.1008797 182.4408264  23.3248730  50.3925896 180.4217987  23.8184586
  50.1075706 180.5931702  24.8459778  50.0784607 179.1397400  23.2812862
  49.4847870 178.0927582  23.9753056  49.3003159 178.1712189  24.9141426
  50.4223785 178.8542938  21.9316273  50.1883049 177.9116669  21.4593430
  51.0265579 179.8688812  21.1523895  51.1431732 179.6549072  20.1002407
  53.7493210 183.3369751  19.4736996  53.7800179 182.8215637  18.3652630
  54.4366188 184.4669647  19.6466312  54.4172173 184.9256439  20.5462646
  55.1792374 185.1340485  18.5852585  54.5209656 185.2033234  17.7192383
  55.3555565 186.6013031  18.9693336  54.3783150 187.0357819  18.7588081
  55.5435791 186.7119904  20.0372753  56.5363922 187.2308807  18.2463169
  56.4755249 187.3721313  16.9989357  57.4526672 187.7911224  18.9060612
  56.4412155 184.3926086  18.1655312  57.3038025 184.0315857  19.0037575
  56.5765762 184.1258087  16.8751678  55.8394012 184.3293457  16.2154331
  57.8392029 183.5736542  16.3220959  58.0350761 182.5864258  16.7405815
  57.6576271 183.3834839  14.8342075  57.4709244 184.3507843  14.3677702
  58.5301590 182.9203491  14.3734512  56.7566948 182.7821655  14.7124004
  59.0758362 184.3729095  16.5681038  60.0697174 183.7643127  16.9070492
  59.1552010 185.7102814  16.5338001  58.2810402 186.1947327  16.3880310
  60.4186249 186.4885712  16.6966190  61.1861038 186.0139618  16.0852108
  60.2115784 187.9436493  16.0952816  59.6289444 188.5406494  16.7968807
  61.2116814 188.3747864  16.1401882  59.6529045 188.0237427  14.6841679
  58.6486244 187.6242371  14.8253345  59.6562042 189.0841675  14.4320240
  60.4085732 187.1974335  13.6187181  61.6555824 187.0823059  13.6208868
  59.6850739 186.6363678  12.7668085  60.8884087 186.4818726  18.1367092
  62.0809517 186.3905487  18.4132328  60.0028496 186.5388947  19.1621208
  59.0216942 186.5479279  18.9226131  60.4166069 186.4945221  20.5555706
  61.2875175 187.1446533  20.6389732  59.2142448 186.7515564  21.4862251
  58.3747902 186.1314087  21.1718464  59.5701675 186.5552979  22.9530563
  60.3351173 187.2840271  23.2212296  58.7485619 186.6906128  23.6564465
  59.9291763 185.5469513  23.1590252  58.6637802 188.0994415  21.2953091
  57.9920197 188.0110626  20.6152115  60.8663635 185.0364990  20.8591022
  61.8623009 184.7866364  21.4908524  60.0792084 184.0249481  20.3758373
  59.3912697 184.2193298  19.6623535  60.5377007 182.5516968  20.5919666
  60.5481148 182.3358002  21.6603260  59.4467163 181.5848846  20.0255642
  59.1742821 181.9546967  19.0370636  59.8692665 180.5811005  20.0697899
  58.0488052 181.4496155  20.6248779  57.7942390 182.4634094  20.9339714
  56.8857307 180.9901123  19.6964378  57.1578522 180.0380096  19.2408810
  56.0121994 180.8329163  20.3291588  56.6065063 181.6822052  18.9019985
  58.0832329 180.6311188  21.9469433  58.7558441 181.0959625  22.6677837
  57.1315269 180.5357208  22.4696808  58.4660072 179.6206818  21.8033676
  61.9081573 182.1554260  20.0152035  62.6819992 181.5087128  20.7600880
  62.2849083 182.6792145  18.8558979  61.5846977 183.2575836  18.4139729
  63.6422195 182.5151367  18.3509274  63.9057198 181.4586029  18.3017464
  63.8312035 183.1203613  16.9802399  63.3754616 184.1102600  16.9581032
  64.8700562 183.3494415  16.7427483  63.2049026 182.1741638  15.9472618
  63.7415848 181.2256775  15.9265852  62.1868935 181.8865509  16.2099953
  63.1575089 182.9721985  14.3321619  64.7961731 182.7032166  13.7736073
  65.2385941 183.6787872  13.5720291  65.3618927 182.0872955  14.4726725
  64.6828918 182.2086639  12.8088846  64.6810379 183.1613770  19.2044430
  65.7833786 182.6230621  19.4421539  64.4597931 184.4369965  19.5946388
  63.6045570 184.9121704  19.3439064  65.4631424 185.0727844  20.4259491
  66.4201202 185.0875702  19.9043369  65.0988464 186.5492096  20.6792202
  64.8385544 186.9384918  19.6949348  64.2696838 186.4964905  21.3847866
  66.2379837 187.3985443  21.3510265  65.7959213 188.2989044  21.7776680
  66.7414932 186.7895813  22.1018600  67.3272552 187.7157898  20.2644310
  66.9980087 188.0824127  19.1318169  68.5329742 187.6840820  20.6844673
  65.6824188 184.3396759  21.8381252  66.8578339 184.1291656  22.1741867
  64.5781021 183.8526917  22.5254784  63.6311035 184.0567780  22.2397461
  64.8210602 182.9342499  23.6993961  65.2855682 183.5787659  24.4456673
  63.3957291 182.4574585  24.2356815  62.7539482 182.1351471  23.4157238
  63.4739952 181.7033844  25.0188484  62.5516472 183.5754700  24.8783588
  63.1693230 184.0535889  25.6386051  62.3296967 184.3763428  24.1730633
  61.2050247 183.2051697  25.5490780  60.6880760 184.1210327  25.8355751
  60.5642242 182.7432556  24.7980099  61.5173416 182.3930664  26.7577953
  62.3674049 182.5848083  27.2684135  60.6493568 181.6977386  27.4739132
  59.3886681 181.4808960  27.1181755  59.0563583 181.7972260  26.2183952
  58.8653831 180.8340912  27.6908302  61.1055717 181.2510223  28.5754414
  62.0938301 181.2848511  28.7811184  60.4566917 180.8636169  29.2454987
  65.7392273 181.7460938  23.4157124  66.7503204 181.5191956  24.1101875
  65.4954453 180.9953918  22.3067226  64.6822586 181.1644135  21.7320328
  66.3675766 179.8872528  21.8734417  66.5442352 179.1563873  22.6625729
  65.7428513 179.1020203  20.6239223  65.6372147 179.7824707  19.7789803
  66.6137619 177.9290771  20.3284721  66.8374939 177.3973999  21.2533360
  66.1619415 177.2403107  19.6146336  67.5866165 178.2086639  19.9241447
  64.3167877 178.6257782  20.9179325  63.8173409 179.4387970  21.4448509
  63.8463173 178.4687805  19.9473076  64.3359222 177.6772156  21.4545517
  67.8093338 180.2920074  21.6865692  68.7747192 179.6853180  22.1537971
  68.0446701 181.4126282  20.9810314  67.2671356 181.9228210  20.5870209
  69.4183350 182.0260010  20.7563362  69.9235306 181.2455902  20.1872597
  69.3427200 183.3076782  19.9051533  68.4794083 183.8680420  20.2640133
  70.2446747 183.9014740  20.0534630  69.0515442 183.1248932  18.4593506
  69.9451752 182.5827179  18.1502209  68.1380920 182.5892792  18.2008934
  69.0416718 184.5047760  17.8541470  68.3095169 185.1008759  18.3988571
  69.9347076 185.1111450  18.0054569  68.6274338 184.3734589  16.4103565
  69.3577423 183.6830444  15.9883518  67.6199722 183.9799957  16.2750034
  68.8148880 185.6518250  15.7406006  69.7596664 186.0079498  15.7663431
  68.6865845 185.4669189  14.7559929  68.2948227 186.4149933  16.1494980
  70.1544571 182.2167664  22.0822754  71.2683334 181.7730560  22.2450504
  69.5401764 182.8753815  23.0793381  68.6656342 183.3733978  22.9942036
  70.1478271 182.9903259  24.4371510  71.0784988 183.5499725  24.3436146
  69.1520462 183.8500214  25.2846565  68.7841034 184.5996552  24.5841160
  68.3525314 183.1740417  25.5878735  69.8393402 184.5097961  26.4755669
  70.0304108 183.7186432  27.2006054  70.6394958 185.0990906  26.0277004
  68.9402313 185.5404816  27.2322407  69.5706177 186.1235809  27.9035778
  68.5066910 186.2507019  26.5281639  67.8116226 184.8022919  27.8659039
  67.9543457 183.8573456  28.1927090  66.5807953 185.2915344  28.0012360
  66.3180618 186.5799866  27.7480888  67.0745316 187.2153168  27.5378513
  65.4160156 186.9690094  27.9827709  65.6532288 184.4847565  28.4602127
  65.9373550 183.5750122  28.7945004  64.7770615 184.9298096  28.6933670
  70.5588760 181.7020874  25.1455383  71.3613815 181.7717438  26.0702629
  70.2270279 180.4820557  24.6487846  69.5591354 180.5225830  23.8922234
  70.8450546 179.2083893  24.9054317  71.3757019 179.3195343  25.8510323
  69.7172546 178.2577515  25.1405411  69.0688400 178.6462555  25.9258499
  69.1030197 178.1152191  24.2514439  70.1616287 176.8917999  25.6225853
  69.2948303 176.2310944  25.6070099  70.7496872 176.5289307  24.7796001
  70.9291840 176.8249207  26.9223347  70.3081207 176.7987213  27.9919701
  72.2312164 176.7140045  26.8499641  72.7900696 176.7379913  27.6909218
  72.6532822 176.6714630  25.9333687  71.9234390 178.8456268  23.8862591
  73.0173340 178.4609375  24.2551689  71.6620483 178.8486176  22.5624199
  70.7939682 179.2201538  22.2039490  72.7018967 178.5812836  21.5430241
  72.8912811 177.5084076  21.5774174  72.1716614 178.8121338  20.1054173
  72.0832748 179.8985443  20.1084347  72.9197617 178.5265198  19.3659096
  70.8146286 178.1394958  19.7320557  70.0155334 178.4982605  20.3807793
  70.4741745 178.4937134  18.2482605  71.2153473 178.0777435  17.5658112
  69.4896393 178.0777283  18.0343819  70.4830475 179.5766907  18.1250820
  71.0442276 176.6452179  19.8274517  71.2138138 176.2748108  20.8384609
  70.1329269 176.1785583  19.4534550  71.8467026 176.3851776  19.1371498
  74.0952225 179.4281158  21.6839409  75.1724701 178.8985596  21.4265804
  73.9992065 180.7021942  22.1291504  73.0671768 181.0746307  22.2418613
  75.1210480 181.5132751  22.4803391  75.7464905 181.4723969  21.5885735
  74.7011719 182.9891357  22.5840149  73.7413483 182.9647369  23.1000061
  75.3827057 183.5325165  23.2385082  74.6615906 183.7257233  21.2772102
  75.8419800 184.0096893  20.5288200  75.3824463 184.8085785  19.5149231
  76.0175018 185.3565063  18.8345623  74.0902634 185.1361084  19.6583691
  73.5345383 185.6951904  19.0269318  73.5853271 184.3688354  20.7003136
  72.6052322 184.5072632  21.1323509  75.9323044 181.1686859  23.7081547
  77.1395416 181.4080658  23.6497612  75.2974854 180.5860443  24.7354965
  74.2969131 180.4605713  24.7922192  75.9712982 179.8758850  25.7869015
  76.7029800 180.5927277  26.1595631  75.0189972 179.4974060  26.9029217
  74.1668167 179.0051117  26.4343758  75.4820633 178.8211975  27.6215363
  74.3940506 180.6437531  27.7193108  73.9537201 181.3306122  26.9965248
  73.5127945 180.2442017  28.2211552  75.4579620 181.1888885  28.7780781
  76.3246994 182.0180054  28.4200172  75.3588562 180.7101288  29.9243717
  76.7023468 178.6679993  25.1529694  77.8245850 178.3520050  25.5647774
  76.1066055 177.9317627  24.2125492  75.2358246 178.2876129  23.8448315
  76.6395874 176.6964874  23.6328812  77.1754684 176.2686462  24.4801598
  75.5176544 175.7578430  23.0637913  74.9016571 176.4067688  22.4412708
  75.9537354 175.0464325  22.3624783  74.6601562 175.0382843  24.0749130
  74.9519577 174.7566528  25.3176174  75.8610382 175.0552216  25.8184433
  73.9753647 173.9438782  25.8640709  74.1720886 173.5937958  26.7908096
  73.0160065 173.5226746  24.9453144  71.8902588 172.6791687  25.0021687
  71.7623672 172.1101379  25.9111443  71.0956802 172.5917206  23.8282585
  70.2253952 171.9530487  23.7951107  71.5348740 173.2133026  22.6188602
  71.0041580 173.0952606  21.6856880  72.6983261 173.9925385  22.6689529
  73.0230942 174.3839111  21.7161961  73.3946533 174.3162231  23.9012375
  77.6654816 176.9431000  22.5330124  78.2558670 175.9709778  22.1463833
  77.8483276 178.2171173  22.0779381  77.1968384 178.9037628  22.4303417
  78.7220840 178.5494080  20.9536572  79.5620422 177.8604889  21.0428486
  77.9697495 178.3220978  19.6384411  77.4866028 177.3511505  19.7476826
  77.2124557 179.1004486  19.5448112  78.9079514 178.3271179  18.3804626
  80.1327667 178.5585480  18.4934292  78.4430695 178.1072083  17.2245369
  79.3365631 179.9729004  21.0099640  78.8581390 180.9529572  20.4356079
  80.3924408 180.0090179  21.7897892  80.6028137 179.1233063  22.2272511
  80.9403992 181.2983704  22.3286572  80.1889496 181.9394989  22.7895164
  81.8993759 180.8871918  23.5009880  82.7064514 180.2124176  23.2156792
  82.3402023 181.8333435  23.8149471  81.1750488 180.3301086  24.7153244
  81.7233047 180.7614899  25.5528316  80.1452026 180.6766357  24.8015232
  81.1312027 178.7953796  24.8768654  80.8144379 178.0644531  23.8991089
  81.4929733 178.3799133  25.9525032  81.6375732 182.1734924  21.2550354
  81.8763275 183.3482819  21.5428009  81.9080429 181.7303467  20.0690765
  81.5273972 180.8247833  19.8342171  82.5448685 182.5272827  19.0035038
  82.9799957 183.4469604  19.3945866  83.7495956 181.8019257  18.3497238
  83.4576340 180.7617950  18.2048454  83.9915466 182.1400604  17.3421402
  85.0325775 181.8258514  19.2949963  85.2287979 180.9200287  20.0785618
  85.9052734 182.8230133  19.0851364  86.8351822 182.8210754  19.4792900
  85.7501602 183.4916840  18.3442421  81.5164261 182.9980164  17.8851395
  81.7873535 183.7934265  16.9789371  80.3117142 182.4463501  17.8826485
  80.0830383 181.7321167  18.5591640  79.2988281 182.6633301  16.8515587
  79.7356033 182.3553009  15.9015827  78.1279984 181.7203217  17.2122917
  78.4814224 180.7010803  17.0563221  77.7981186 181.9824982  18.2175484
  76.8922729 181.7793121  16.2504292  77.1800537 182.0907898  15.2463112
  76.1990280 180.4542389  16.1306725  76.0905609 180.0274811  17.1277752
  75.2351685 180.6027985  15.6438427  76.8089142 179.7391510  15.5786018
  75.9067993 182.7926331  16.8803310  76.4032364 183.7213287  17.1617317
  75.0636444 182.9147339  16.2004242  75.5299454 182.3863373  17.8189507
  78.9427261 184.1504974  16.7263412  78.7594299 184.8298950  17.7574997
  78.6498489 184.5133820  15.4532480  78.9425812 183.9157562  14.6934824
  77.7415848 185.5909882  15.0466337  77.3602600 186.1956024  15.8695126
  78.5013885 186.4356995  13.9901304  78.8899384 185.7407379  13.2457075
  77.7818451 187.0977173  13.5083790  79.6764908 187.2732239  14.5393238
  79.2421417 188.2626038  14.6828251  79.9706345 186.9274902  15.5303040
  80.9443665 187.3005676  13.6608906  81.7904739 187.7135315  14.2101259
  81.2397003 186.2681885  13.4735336  80.7995911 187.9404755  12.2941999
  81.4874878 187.5379486  11.5506487  79.8216934 187.6653748  11.8990469
  80.9412613 189.3469391  12.3899946  81.9166412 189.5158386  12.5905027
  80.6148224 189.9156189  11.6217823  80.5221939 189.6546631  13.2559032
  76.5083542 185.0621643  14.3785849  76.5176392 183.9545593  13.8594208
  75.4404526 185.8687439  14.4069843  75.4441910 186.6886444  14.9967756
  74.1132660 185.4535675  13.9351511  73.8720398 184.5670929  14.5217381
  73.0779648 186.4348755  14.3925438  73.3907623 187.4402313  14.1105843
  72.1910706 186.1020203  13.8533602  72.7295456 186.4993286  15.8706236
  73.6241684 186.3636932  16.7133598  71.4952927 186.5310059  16.2072754
  74.0293808 185.2165222  12.3968935  73.0531311 184.6436310  11.8811255
  75.0669250 185.6568756  11.6416140  75.7756729 186.0582275  12.2388515
  75.2557220 185.6516724  10.1943417  74.3953400 186.2130127   9.8300066
  76.5644531 186.3325043   9.9174213  77.2960434 185.7516632  10.4791250
  76.7156830 186.3795471   8.8389864  76.7960205 187.7849731  10.4193144
  76.6768188 187.9908752  11.4830341  77.8113251 188.0519257  10.1260567
  75.8065796 188.7360077   9.6873264  75.5647354 188.5653534   8.4830685
  75.2424164 189.6927795  10.2997522  75.2285461 184.2357941   9.5115271
  75.2384262 184.0273438   8.3190527  75.1672287 183.1711273  10.3167543
  75.2809372 183.3915253  11.2958355  75.2016373 181.7063293   9.9052229
  75.2486572 181.5197296   8.8323431  76.4668198 181.0950165  10.4667664
  76.8487701 180.2409973   9.9074011  77.2957916 181.7965088  10.3729038
  76.2348785 180.7412567  11.8319178  76.3126068 181.5449982  12.3511171
  73.8145828 180.9784088  10.2446718  73.6721649 179.8081055   9.8599491
  72.9048080 181.6222382  10.8839798  73.0553360 182.6159058  10.9843016
  71.5501938 181.1408234  11.1506271  71.4817276 180.0535126  11.1163349
  71.1768723 181.5209351  12.6168375  71.2063370 182.6104431  12.6305933
  70.2547455 181.0571747  12.9671383  72.2619553 180.9970093  13.6432772
  73.2363434 181.2896423  13.2520771  72.1856766 181.5012817  15.1063643
  71.2282791 181.2014771  15.5325184  72.9468002 181.1106110  15.7817640
  72.3155136 182.5829315  15.1421833  72.1742325 179.4483643  13.6746922
  72.5352478 179.0901794  12.7105942  72.8705292 179.0143433  14.3922539
  71.1242447 179.1617126  13.7335501  70.4863129 181.7039490  10.1948280
  70.5996475 182.8364105   9.7330313  69.4071503 180.9462433   9.9905539
  69.4068756 179.5110321   9.9987717  69.0208588 179.0853577  10.9250031
  70.3992157 179.1315765   9.7550955  68.3899612 179.1519623   8.8843069
  68.0073547 178.1388550   9.0080795  68.9563828 179.2836761   7.9623928
  67.3019485 180.2571716   9.0809164  66.6704636 180.0219574   9.9376497
  66.7815857 180.2487183   8.1231794  68.2349854 181.4674225   9.3018780
  68.5760422 181.8978271   8.3603191  67.4942474 182.4907379  10.1097059
  67.3225403 182.3193665  11.2944345  67.1781845 183.6064148   9.5284090
  67.4906235 183.7655334   8.5812225  66.2625809 184.5855865  10.0817757
  66.4082947 184.6218262  11.1613836  66.4624863 186.0283203   9.5823450
  65.7430267 186.7268677  10.0095377  67.8478317 186.4627075  10.0433464
  68.5386124 186.1242523   9.2710962  67.9164658 187.5474091  10.1257887
  67.9971771 186.0255737  11.0306215  66.4069214 186.1743317   8.1464911
  66.2110367 187.0738983   7.8744521  64.7509155 184.2362671   9.9109898
  63.8613777 184.9270782  10.4096642  64.3951187 183.0585938   9.3258142
  65.0968781 182.4682159   8.9026203  63.0084190 182.6044464   9.1420383
  62.3367577 183.4613647   9.1935892  63.0022011 181.9845734   7.7740111
  63.4600639 182.5801849   6.9842567  63.5504532 181.0505524   7.8970590
  61.6589584 181.8181763   7.1987147  60.8111305 182.6625824   7.3461680
  61.3817978 180.6369781   6.6773911  60.4523163 180.5955048   6.2843885
  62.1600304 180.0718536   6.3690300  62.6747704 181.5958405  10.2498875
  63.5593872 180.7873993  10.5053473  61.5016861 181.5493317  10.9063072
  60.3798065 182.4759216  10.7538557  60.0304260 182.6871033   9.7431974
  60.6570473 183.4554596  11.1433945  59.2931023 181.9217682  11.6413183
  58.6442947 181.2709961  11.0550966  58.7675171 182.7080994  12.1831121
  59.9759293 181.0264587  12.6857672  59.2770844 180.2568207  13.0134373
  60.2523537 181.5246887  13.6149950  61.2721825 180.5505829  11.9804640
  62.0115242 180.6501617  12.7751703  61.1634598 179.1164093  11.5673981
  61.6820717 178.2629395  12.3000555  60.6882515 178.8142700  10.3575897
  60.2721901 179.5731506   9.8369226  60.6408691 177.4741821   9.7910862
  59.9812241 176.8675690  10.4115562  60.0715065 177.4722290   8.3512907
  60.5879707 178.2717133   7.8200555  60.3558464 176.2377777   7.5446420
  59.9915771 175.3761292   8.1040716  59.8017235 176.1811829   6.6077085
  61.4356461 176.1815491   7.4068813  58.5821190 177.7259521   8.4090633
  58.0485306 177.0995331   7.6942329  58.1532021 177.4823456   9.3810644
  58.1886635 179.1920319   8.1381550  58.5479050 179.4001770   7.1303220
  57.0990067 179.2185516   8.1313887  58.7090263 179.8757172   8.8088942
  61.9921951 176.8704834   9.8281746  62.2122040 175.8632965  10.5140600
  62.9483261 177.4624481   9.1203880  62.6821518 178.2865601   8.6006794
  64.2492447 176.8347168   8.9221649  64.0946960 175.7871246   8.6637735
  65.0030594 177.5451355   7.7711706  65.0728683 178.5640869   8.1519432
  66.0237045 177.2162323   7.5757055  64.2176437 177.7545776   6.4283457
  63.5654678 178.7962036   6.2484455  64.1878815 176.8437347   5.5507913
  65.1657639 176.9001923  10.1436977  65.9376984 175.9943085  10.4435968
  65.0183487 177.9006195  11.0176210  64.4698792 178.6900787  10.7077322
  65.5878906 177.9445496  12.3207598  66.6619263 177.8043671  12.1987047
  65.2868576 179.2725220  12.9480743  65.6005630 180.0129089  12.2121925
  64.2146454 179.4553986  13.0189409  65.9613724 179.4780273  14.2842331
  65.4177933 178.7932892  15.3688631  64.4797440 178.2608795  15.3140688
  65.9813080 178.9868774  16.6454182  65.6243362 178.4711914  17.5246391
  67.1011963 179.8235016  16.8500347  67.5465012 180.0074921  17.8166008
  67.7066727 180.4342499  15.7018566  68.6328812 180.9462585  15.9172401
  67.1686401 180.2019806  14.4519720  67.6381760 180.5641632  13.5493317
  65.1079025 176.7678680  13.2423048  65.9280548 176.0927429  13.8003035
  63.7628517 176.5268555  13.3974371  63.1214180 177.0817566  12.8490191
  63.2877579 175.4998169  14.2575274  63.7438126 175.5128021  15.2474508
  61.7811584 175.6923370  14.5807829  61.3879433 174.8933563  15.2093763
  61.6190147 176.6461487  15.0828199  61.0064774 175.6971283  13.3577003
  61.0430679 176.5580902  12.9346256  63.7076111 174.1324463  13.6541748
  64.1329727 173.1912537  14.3720236  63.7164650 174.0381165  12.2691212
  63.2584610 174.7646790  11.7376747  64.1722031 172.7872925  11.5815601
  63.5619392 172.0203705  12.0585318  63.7698593 172.7984161  10.1311693
  63.9322243 173.8241577   9.8001575  64.4611130 172.1590729   9.5820532
  62.4374847 172.2894592   9.7284508  61.8528404 171.1283417  10.1935272
  62.4383965 170.5132446  10.8607464  60.5870743 170.6997986   9.7653360
  60.1886826 169.7651062  10.1314716  59.9828453 171.4596863   8.7408876
  58.6982994 171.1955109   8.3481760  58.5433159 171.6630554   7.5241756
  60.5294151 172.6452942   8.2158689  60.0618973 173.1487427   7.3825774
  61.7964897 173.0205841   8.7261982  62.3198357 173.8452301   8.2652617
  65.6633301 172.4923096  11.8471127  65.9748764 171.4201202  12.3281021
  66.5568390 173.4985199  11.8715382  66.1965027 174.3798676  11.5346651
  67.8991852 173.4683075  12.4281311  68.5349045 172.7145081  11.9636526
  68.5931625 174.8297272  12.1687555  68.6712646 175.0944214  11.1142721
  67.9364929 175.5811768  12.6071720  69.9967194 174.9255066  12.7849627
  70.2357788 175.9878387  12.7360249  70.0152130 174.5878143  13.8211679
  71.1449051 174.2041168  12.1222315  72.0219879 174.6752472  12.5659313
  71.1708298 173.1375580  12.3455734  71.1479797 174.4469910  10.6470251
  70.4376144 173.9539490  10.1251183  71.8666229 175.3838959   9.9807444
  72.6979523 176.2823486  10.5641956  72.7970505 176.2989349  11.5691853
  73.3702164 176.7294769   9.9573736  71.7100983 175.5334778   8.7027178
  71.2106400 174.8566437   8.1436806  72.3223419 176.1908722   8.2410984
  67.9292755 173.0277557  13.8673334  68.6228714 172.0748444  14.1807060
  67.2391663 173.6848450  14.7819576  66.5217972 174.2963715  14.4193048
  67.3216476 173.3087158  16.2458897  68.3697128 173.2814484  16.5440788
  66.6375275 174.2805634  17.1288891  65.5991669 174.4855652  16.8683300
  66.6509476 173.7848816  18.5948296  67.7026138 173.6333313  18.8380318
  66.2097092 174.5696106  19.2093258  66.1834946 172.8184509  18.7835503
  67.3116074 175.6328430  17.0741711  66.9739990 176.0971527  16.1475983
  67.0967560 176.2248230  17.9638367  68.3982010 175.5644226  17.0218830
  66.7610397 171.8626251  16.4800072  67.3686600 171.0559082  17.2523708
  65.6080627 171.4895782  15.8381119  65.1869659 172.2318420  15.2979097
  64.8995972 170.2634430  15.9745188  64.4415512 170.1569519  16.9578609
  63.6459694 170.2459412  15.0953255  63.8979912 170.3871765  14.0443077
  63.0752258 169.3178864  15.1281290  63.0653152 171.1143341  15.4065046
  65.8836823 169.1277466  15.6191959  65.8234863 168.0469818  16.2346268
  66.7990341 169.2613831  14.6483030  66.7741089 170.1739960  14.2163353
  67.8184357 168.3188324  14.2386560  67.3043747 167.4017487  13.9509068
  68.5386810 168.9625702  12.9889193  68.9624939 169.9504242  13.1695433
  69.3031464 168.2595978  12.6579657  67.8256531 169.0494537  12.1690750
  68.7162552 168.0909424  15.4130239  68.9277039 167.0122528  15.9182358
  69.3830032 169.1293335  15.9413986  69.0772781 170.0486755  15.6560230
  70.6330643 169.0607452  16.8326168  71.2873611 168.2492371  16.5141010
  71.4873199 170.3154144  16.6105518  72.4276657 170.3573456  17.1601830
  71.7216110 170.4287262  15.5520792  70.5855255 171.7926483  17.1351929
  70.0988922 172.2044830  15.9611082  70.3554535 168.8478088  18.2823753
  71.3115387 168.7016449  19.0813770  69.0769653 168.7752380  18.7158413
  68.3703384 168.8150177  17.9952812  68.6748428 168.5755463  20.0856495
  69.3677902 169.2170715  20.6300583  67.2288055 168.9908600  20.4068317
  66.6469879 168.6424103  19.5534954  66.8241425 168.4804535  21.2808151
  67.0444336 170.5036469  20.6667862  67.5276566 171.0268097  19.8416157
  65.5619049 170.7462769  20.7705917  65.1150589 170.2127838  21.6095257
  65.5181961 171.7991638  21.0492115  65.1296082 170.5663910  19.7862873
  67.7305069 170.9318390  21.9829044  68.8115768 170.8439636  21.8748646
  67.4882278 171.9677277  22.2202244  67.3044586 170.3437805  22.7957821
  68.9461823 167.0698090  20.5252342  68.4547501 166.1023712  19.8550091
  69.6495895 166.7495728  21.6413231  70.4745407 167.6944427  22.4554424
  69.9719391 168.5239716  22.9528217  71.1421890 168.1912689  21.7515125
  71.2926712 166.8344727  23.4517822  70.7163010 166.8040619  24.3764286
  72.2752609 167.2584534  23.6588097  71.2475739 165.4152374  22.8579922
  71.3754120 164.6553040  23.6288795  72.0310669 165.3413849  22.1038094
  69.9271164 165.3730011  22.0711269  70.0611420 164.7142639  21.2131042
  68.9029694 164.7230835  22.9316788  68.8406982 164.8219452  24.1311245
  67.8947754 164.0890350  22.3041630  67.8686752 164.0728912  21.2946301
  66.6437836 163.5051727  22.9063892  66.7957458 163.2934570  23.9647770
  65.4716797 164.4812164  22.7346973  64.4981003 163.9916687  22.7104321
  65.3254242 165.4906769  24.0039024  66.1968765 166.1442566  24.0424843
  64.3277283 165.9271698  23.9572239  65.5161362 164.9102020  24.9065571
  65.5500259 165.3975983  21.4535427  66.3302231 166.1285553  21.6659069
  65.9250259 164.7557526  20.6563625  64.2279434 166.0349426  21.0589027
  63.9892921 166.8127136  21.7843170  64.5052185 166.5199432  20.1229572
  63.4603996 165.2905884  20.8470039  66.2842560 162.1668701  22.2639332
  66.8019485 161.8404846  21.1809788  65.5393448 161.3106995  22.9393234
  65.1542511 161.5718231  23.8357735  65.0943527 160.0039825  22.2814560
  65.9580460 159.4982758  21.8497219  64.6125107 159.1144104  23.4698009
  64.4196243 158.0956879  23.1334972  65.4021301 159.0078278  24.2136097
  63.3155746 159.6121521  24.1159744  63.2774429 160.8244629  24.5160065
  62.3980293 158.7565308  24.3031235  64.0289612 160.0454102  21.2353287
  63.4811363 161.0774841  20.9135132  63.9602356 158.9451294  20.5187912
  64.4056931 158.0908508  20.8218899  63.2932434 158.9308319  19.1803169
  63.5768013 159.8188324  18.6154022  63.5796280 157.7465973  18.2243462
  63.3071289 156.8208923  18.7312374  63.1510696 157.7923279  17.2231750
  65.0832977 157.6164856  18.0269871  65.6671448 158.5452423  17.4304829
  65.7972183 156.6331024  18.4031696  61.7418365 158.9837494  19.3173389
  61.0647240 159.4559174  18.4165821  61.1910706 158.5240326  20.4563675
  61.8112068 158.1269531  21.1476345  59.7397575 158.6399994  20.7440624
  59.2567024 158.3253479  19.8189945  59.3434639 157.7109985  21.9604702
  59.7537804 158.0465088  22.9129276  58.2651634 157.7800140  22.1040287
  59.5301781 156.6527252  21.7779922  59.3269882 160.0806580  20.9162025
  58.2019310 160.4170837  20.4465122  60.1867065 160.9731903  21.4328251
  61.1001587 160.6246796  21.6863079  60.1179848 162.4335175  21.5112400
  59.0800056 162.6972351  21.7140903  60.9577751 162.9533844  22.6559486
  60.5709457 162.5181732  23.5773926  62.0010643 162.6634827  22.5310287
  60.9330177 164.4608459  22.9069214  61.4971809 164.9433441  22.1087933
  59.5444298 165.0495605  23.0343456  58.9509621 164.5244141  23.7827568
  59.6838074 166.0908356  23.3249073  59.0577202 165.0582428  22.0590820
  61.7382965 164.6829834  24.1781921  62.6817551 164.1371460  24.1851387
  61.9916039 165.7430115  24.1948242  61.1450996 164.4702606  25.0675526
  60.5191307 163.1004486  20.1699982  59.7966843 164.0850983  19.8213234
  61.5079803 162.7170105  19.4223213  62.0532379 161.9897461  19.8626366
  61.7760201 163.3398285  18.0855885  61.7109032 164.4278870  18.0871067
  63.1522255 162.9177246  17.5306244  63.1793289 161.8307800  17.6077576
  63.2828636 163.1931915  16.4841309  64.2966385 163.6014099  18.3638496
  64.4243088 164.6642609  18.1585331  64.0353546 163.4983978  19.4170456
  65.5812531 162.8954468  18.1155510  66.2789536 163.1481476  18.9139633
  65.3589859 161.8351593  18.2359886  66.2701874 163.1628723  16.7802715
  66.3006363 162.3549500  16.1749325  67.0375290 164.1823730  16.4672794
  67.2449265 165.1594238  17.2681293  66.9147797 165.1338501  18.2223053
  67.8327942 165.9163666  16.9494495  67.6926117 164.2318726  15.3618717
  67.5631409 163.5132904  14.6640368  68.2578125 165.0305939  15.1115007
  60.6446533 162.9568939  17.0798340  60.4794655 163.7066193  16.1167545
  59.7358513 161.9544830  17.3627014  60.0331230 161.2901306  18.0629635
  58.4430923 161.6783600  16.6427879  58.6614532 161.8327637  15.5861025
  58.0047989 160.2023468  16.8689880  57.9971657 160.0139618  17.9425564
  56.5421448 159.9685669  16.4007473  56.3505783 160.3212738  15.3873386
  56.3750343 158.8917389  16.3752899  55.8613472 160.4294434  17.1164322
  58.9338875 159.1971741  16.1082344  58.5812492 159.0851593  15.0829544
  59.9730911 159.5188904  16.0399418  58.8721390 157.7542419  16.6835747
  57.8552551 157.3645020  16.6371365  59.4309387 157.1207428  15.9947195
  59.3757324 157.7065430  17.6490936  57.4285622 162.7299957  17.0327187
  56.8217354 163.2687378  16.1122704  57.3475418 163.0468903  18.3649445
  58.0203018 162.5883942  18.9626617  56.4396782 164.0437622  18.9723034
  55.4682388 163.6906128  18.6263294  56.4767609 164.1728973  20.5092373
  57.4458046 164.5088654  20.8782654  55.7867622 164.9567719  20.8215446
  56.0148506 162.9620361  21.2945633  56.9060020 162.3455505  21.4124374
  55.6745567 163.2918396  22.2761574  54.9360237 162.0296631  20.6439419
  53.8900375 162.4292755  20.1534691  55.1541214 160.7262115  20.8082905
  54.4584770 160.0506439  20.5258236  56.0851822 160.4060669  21.0335312
  56.7685776 165.4295044  18.3449974  55.9824181 166.1011963  17.7708454
  58.0762634 165.8868561  18.3707829  58.7382088 165.4075317  18.9642277
  58.5553856 167.0178375  17.6910629  58.0270653 167.8823853  18.0929813
  60.0110664 167.1955414  17.9660778  60.3096466 166.8786163  18.9653339
  60.6119461 166.6568298  17.2333908  60.5783691 168.6203308  17.8369694
  60.3804970 168.9311676  16.8111401  59.8771744 169.5622253  18.7915688
  60.0456390 169.1948853  19.8038731  60.2270508 170.5878143  18.6738453
  58.8172913 169.6814423  18.5667419  62.0655174 168.6069336  18.1670914
  62.6986465 168.1087494  17.4328728  62.3967972 169.6271820  18.3606033
  62.2930069 168.1741638  19.1412907  58.3476753 166.9974060  16.1962852
  57.9750023 167.9731445  15.5882730  58.7549171 165.9304657  15.4548616
  59.0679092 165.1107025  15.9549885  58.4462166 165.7923584  14.0105352
  58.9510155 166.6458130  13.5578794  59.0342712 164.4865723  13.4979162
  60.0850143 164.4375916  13.7836246  58.5200348 163.6580200  13.9849186
  58.9609718 164.1692963  11.9892607  57.9950752 164.3715057  11.5263853
  59.9551277 165.0815430  11.2810097  60.9700661 164.8647766  11.6141872
  59.9737206 164.9568481  10.1983261  59.6620331 166.1266022  11.3812275
  59.3496475 162.7153168  11.6197643  58.5827560 162.0941010  12.0824242
  59.3500862 162.5411987  10.5437593  60.3031235 162.5395050  12.1178360
  56.9721947 165.9139252  13.6613369  56.6409225 166.6322174  12.7033863
  56.0423737 165.3252411  14.4411211  56.3784218 164.7806244  15.2225094
  54.5432243 165.3811951  14.3299456  54.1897469 164.9115753  13.4120102
  54.0257683 164.5557861  15.4750595  54.7496376 164.4698639  16.2854462
  53.2032776 165.0580292  15.9843388  53.5207825 163.1419373  15.1674290
  52.7158165 163.1806488  14.4335117  54.3242226 162.6248627  14.6428289
  52.9864159 162.4294739  16.4428749  53.8363533 162.3459930  17.1201801
  52.2367134 163.0065613  16.9841900  52.3009605 161.1639862  15.9541025
  51.6350136 161.4627686  15.1445694  53.0550270 160.5715332  15.4359512
  51.6071930 160.3721466  16.9831142  50.7646828 160.8721466  17.2286282
  51.3371773 159.4979248  16.5554218  52.0730629 160.2905579  17.8755322
  53.9287910 166.7845764  14.4145489  52.8065758 166.9956055  14.0008259
  54.5946007 167.7280273  15.1184502  55.5028076 167.4830170  15.4861984
  54.1307983 169.1290283  15.2467051  53.1847954 169.1949921  15.7841330
  55.2238083 169.8143921  16.1228714  56.2037544 169.5186615  15.7482338
  55.3091621 171.3656616  16.0254345  54.4080353 171.9006042  16.3252831
  56.1239090 171.6801300  16.6776581  55.5249481 171.6615601  14.9987974
  55.0014267 169.4057007  17.6143074  54.7774353 168.3396912  17.5747013
  55.8773537 169.6646729  18.2091045  53.7421684 170.0673218  18.2477665
  52.8492546 170.0576477  17.6227036  53.4606247 169.5018616  19.1360645
  53.9686203 171.0698700  18.6107349  53.9731445 169.8608551  13.8922596
  54.5559082 169.4796600  12.8591642  52.9238281 170.6961823  13.8234100
  52.4188194 170.9053650  14.6727066  52.3171349 171.2274017  12.6333275
  52.4833755 170.5164948  11.8239517  51.2717552 171.3928375  12.8939333
  52.9715462 172.4839478  12.2570353  53.2415962 172.8202057  11.1294470
  53.3687973 173.3101349  13.3033257  53.1656075 172.9893646  14.2392330
  53.9108925 174.6580811  13.0832243  54.0246124 174.7483063  12.0029325
  52.7939987 175.6340332  13.5499620  51.8554153 175.3935394  13.0506439
  52.5622559 175.4715271  14.6025715  52.9612083 177.0262146  13.2871323
  52.3169212 177.3150787  12.6367035  55.2976837 174.9671326  13.7627220
  55.5588150 174.4810791  14.8522873  56.0463142 175.8967285  13.1955528
  55.7423935 176.3261566  12.3333893  57.3022537 176.3758545  13.8113480
  57.8834915 175.4554138  13.8666763  57.9755135 177.3719788  12.8576651
  57.2051811 178.0696869  12.5291777  58.7743111 177.8365631  13.4357452
  58.3333321 176.8596954  11.9645586  57.0926018 177.0958710  15.2298164
  57.9594116 176.9619751  16.0604591  55.9734802 177.8004608  15.3819237
  55.3084068 177.7527313  14.6233072  55.5695190 178.3529205  16.6855984
  56.3423882 178.9733887  17.1392536  54.2428970 179.1363068  16.5238247
  53.5978470 178.4505615  15.9745073  53.5437241 179.3226013  17.9226437
  54.1229858 180.0109253  18.5380745  52.5748253 179.7925262  17.7538185
  53.3665504 178.3912354  18.4604836  54.5647430 180.4347839  15.7335119
  54.7239723 181.2188873  16.4737263  55.4910698 180.2705536  15.1830072
  53.4499245 180.8407745  14.8101244  52.5309944 181.0005798  15.3741474
  53.7943993 181.7519684  14.3210974  53.3243904 179.9889069  14.1417866
  55.3583221 177.2775726  17.7495632  55.8333893 177.4163208  18.8523388
  54.6466103 176.2064362  17.4457970  54.2343445 176.1592560  16.5249767
  54.5141373 175.0616302  18.2958069  54.0857468 175.3019562  19.2688560
  53.5471077 174.1563873  17.5546665  53.8580704 174.2883453  16.5183334
  53.6329880 173.1082306  17.8411522  51.9770164 174.4654388  17.5909977
  51.6445351 174.2636566  18.6092510  51.8151817 175.5266418  17.4018764
  51.2228432 173.6195984  16.5773907  51.8340111 172.9290009  15.7503538
  49.9071693 173.5906372  16.6218090  49.3754807 173.0970612  15.9191017
  49.5058174 174.3145905  17.2005177  55.8316689 174.2702942  18.4142742
  56.0723267 173.7808685  19.4638481  56.6885910 174.0877991  17.3905563
  56.5566978 174.5362396  16.4952354  57.9894142 173.5020599  17.5261917
  57.8538818 172.4970856  17.9258785  58.4917336 173.1932220  16.0738373
  57.6106033 173.0741577  15.4433336  59.0193100 174.0804443  15.7237005
  59.4149933 171.9048462  15.9249945  60.3936119 172.1645660  16.3286705
  58.9320107 171.0983582  16.4767170  59.4714737 171.4534302  14.4588556
  60.2036247 170.6472321  14.4131918  58.4985542 171.0275726  14.2135639
  59.8766098 172.5453644  13.5576096  60.6221886 173.1580963  13.8555460
  59.2424698 172.8325043  12.4198132  58.3007317 172.0530853  11.8419132
  58.1311646 171.1177979  12.1833544  57.9361916 172.3519897  10.9486799
  59.6048050 173.8856659  11.8289852  60.1883888 174.5906677  12.2561941
  59.0783920 174.0664062  10.9861784  58.9008598 174.2355194  18.4285030
  59.4516792 173.6693115  19.3448906  59.0327911 175.5803375  18.2814083
  58.5514565 175.9660339  17.4816265  59.6894875 176.5149078  19.1814232
  60.7262421 176.1865692  19.2550964  59.5595779 177.9083405  18.5300674
  58.5220261 178.0014191  18.2092476  59.7919655 178.6911163  19.2521229
  60.3518295 178.2928772  17.2291641  60.2111511 177.5437927  16.4499474
  59.9207420 179.7053986  16.8009624  60.3351822 180.4569550  17.4728928
  60.0979500 179.8065948  15.7302341  58.8342171 179.7884827  16.7752113
  61.8842812 178.3738251  17.4236374  62.2314453 177.3526001  17.5807343
  62.3531265 178.7462921  16.5128403  62.1589241 179.0065155  18.2676601
  59.1709785 176.4100037  20.6121387  60.0260239 176.3771515  21.5300808
  57.8272285 176.2227173  20.8223419  57.1975365 176.2993622  20.0363941
  57.2436104 176.0373993  22.2004967  57.6335983 176.7722931  22.9047184
  55.7192841 176.1664581  22.0682240  55.4219589 175.6731262  21.1428471
  55.1909294 175.6522980  22.8710861  55.3295631 177.6098633  22.0091267
  55.7435913 178.0462494  22.9181099  55.6946602 178.1562195  21.1394749
  53.8119278 177.7968292  22.1259003  53.5625687 178.8561401  22.1872826
  53.4224472 177.4453888  21.1704426  53.1847115 177.0861359  23.2603264
  52.8215866 176.1616821  23.0769215  52.9425354 177.5211334  24.4871445
  53.3360672 178.7281799  24.8811760  53.7666016 179.3529968  24.2145824
  52.9759521 179.1287231  25.7355671  52.4027672 176.6671143  25.3453960
  52.1838760 175.7183075  25.0771599  52.6595993 176.8781738  26.2991219
  57.6420555 174.6995697  22.7863083  58.0852852 174.6214294  23.9855270
  57.5805244 173.6592560  21.9325218  57.1955338 173.7958069  21.0088158
  58.1100235 172.2972717  22.2870312  57.5061836 171.9346008  23.1188698
  57.8394775 171.3169861  21.1420708  56.8439636 171.4490814  20.7182770
  58.5618172 171.5320587  20.3546238  58.1993141 169.6360931  21.7013226
  56.9192696 169.2562714  21.6552792  59.5726776 172.3725281  22.6774445
  59.9432106 171.9019318  23.7567081  60.3744774 172.9669647  21.8279476
  59.9691925 173.2179871  20.9375381  61.7928658 173.1133118  22.1022968
  62.1269302 172.0849609  22.2400723  62.5418701 173.8584442  20.9335880
  61.8975830 174.6824036  20.6268349  63.4608307 174.1728058  21.4283485
  62.7737122 173.1337128  19.6259079  63.7437859 172.6389160  19.6731529
  61.9982605 172.3824310  19.4764118  62.7633591 174.0172424  18.3837433
  63.1320076 175.2337189  18.4198074  62.4320107 173.4550018  17.2924938
  62.0198746 173.8442078  23.4298668  62.8273926 173.3948975  24.2652130
  61.2610970 174.9266663  23.6993999  60.6381226 175.3026581  22.9989529
  61.4907227 175.6986694  24.9300880  62.5542564 175.9366913  24.9114704
  60.7824326 177.0956116  24.8259029  59.7874451 176.9745483  24.3975945
  60.6774826 177.4925995  25.8355961  61.6341705 178.0619049  23.9708004
  62.0246773 177.4712677  23.1420956  60.9480553 179.3594208  23.5426540
  60.6817703 179.9378204  24.4273205  61.5923996 179.8539734  22.8157845
  60.1496582 179.0759735  22.8568554  62.8841209 178.5476379  24.6449490
  63.4197884 177.6926727  25.0575218  63.5553932 178.9764252  23.9008846
  62.6406517 179.2937775  25.4013138  61.1740570 174.9982758  26.2387161
  61.7660713 175.2651825  27.2757072  60.2313194 174.0117493  26.1715240
  59.7405586 173.8960114  25.2963924  59.8841362 173.0941467  27.2567425
  59.6449242 173.5889587  28.1980324  58.5227470 172.4509125  26.8939686
  57.7948952 173.2622528  26.8859596  58.5558014 171.9302368  25.9369411
  57.9434471 171.3889160  27.8099480  58.1078529 171.4295959  29.0350132
  57.2424812 170.5329590  27.2972736  60.9763145 172.0099945  27.5423298
  61.3925705 171.8580627  28.6516247  61.4831314 171.3484192  26.4854355
  61.2400360 171.7509766  25.5915928  62.6754913 170.4960480  26.5593262
  62.3976593 169.7735443  27.3267212  63.0069160 169.8930969  25.1607285
  63.0277176 170.7395172  24.4742718  64.3702011 169.1967926  25.1097698
  64.6448593 168.6399536  26.0056438  64.3798676 168.4551239  24.3110561
  65.1479492 169.9490662  24.9783249  61.8604012 168.8703918  24.7789593
  61.8719902 167.9731293  25.3977356  60.8809471 169.2960968  24.9970016
  61.7814713 168.4668427  23.2831097  62.5472260 167.7398987  23.0124092
  60.8267174 168.0187988  23.0077839  61.9236488 169.3128815  22.6107178
  63.8598213 171.2764435  27.1575737  64.5058517 170.7009125  28.0870380
  64.2334137 172.4974213  26.7371502  63.7199059 172.8460541  25.9403706
  65.4421463 173.2079315  27.1596069  66.2633209 172.5018311  27.0363331
  65.6781158 174.4864349  26.3468285  64.8111267 175.1412964  26.2596970
  66.4720154 175.0731506  26.8089733  66.1308136 174.1325378  24.8730564
  66.7689819 173.2518921  24.8002300  65.1764679 173.8898315  24.4056854
  66.8495712 175.6003876  24.0626869  67.8097229 174.9484253  22.7385502
  67.1701965 174.4489594  22.0107803  68.3599930 175.7578125  22.2587490
  68.4535675 174.1969452  23.1955338  65.3801956 173.6791687  28.6174679
  66.4399033 173.8481293  29.1742191  64.2470703 173.7982025  29.2999706
  63.3879051 173.6027527  28.8062840  64.1931458 174.0823822  30.7571030
  64.9948425 174.7951050  30.9505310  62.7945557 174.6891479  31.0909176
  61.9708824 174.1059570  30.6791611  62.8003731 174.6218109  32.1788254
  62.6068306 176.1670227  30.7554226  63.4904518 176.9296570  30.4512043
  61.4588280 176.6981506  30.9645100  61.5049820 177.7047272  30.8953037
  60.7511559 176.1513519  31.4338760  64.4718552 172.8679199  31.6664658
  64.8797073 173.0410919  32.8482628  64.1994019 171.6225433  31.1968632
  63.6975212 171.6008301  30.3206520  63.9692459 170.4395294  32.0455894
  64.0373077 170.7507324  33.0879974  62.5147209 169.8955688  31.7899227
  62.3855743 169.8474884  30.7086697  62.3638268 168.9032440  32.2149086
  61.4334297 170.8289337  32.4025764  61.3276176 170.5457153  33.4498100
  61.6928749 171.8806610  32.2815323  60.0637169 170.6791077  31.7279205
  60.0538063 171.2326660  30.7889977  59.8771400 169.6252289  31.5214825
  58.9534149 171.2805939  32.5488510  58.7830582 170.8096924  33.5170135
  59.1565056 172.3387604  32.7135925  57.6821899 171.2168884  31.7424545
  57.2134323 170.3260345  31.8246803  56.9710121 171.8480988  32.0828743
  57.8295212 171.5226593  30.7911930  64.9910507 169.3022308  31.7672291
  65.2316360 168.4807434  32.6338501  65.7292480 169.3624115  30.6794968
  65.4409943 170.0460815  29.9942169  66.9732208 168.6411896  30.3985214
  66.9269562 167.6086731  30.7447376  67.2873917 168.7213898  28.9111729
  66.4330521 168.3070068  28.3759174  67.5773315 169.7413025  28.6586056
  68.7300110 167.7327118  28.5050449  68.5035629 167.8346405  27.1923275
  68.1843643 169.1934814  31.2391968  68.5099792 170.3570099  31.2354774
  68.9236221 168.3149872  31.9512939  68.7882080 167.3247986  31.8053589
  70.0465012 168.7539215  32.8400421  70.5002518 169.6462708  32.4088440
  69.5050125 169.0967102  34.2726860  70.3778763 169.1129456  34.9253349
  68.6252594 170.3662720  34.3637085  67.7444839 170.2235107  33.7376328
  68.3559113 170.4149017  35.4187851  69.2354584 171.2478333  34.1672249
  68.7440109 168.0262451  34.6930618  67.9568100 168.3340302  35.1482353
  71.1772385 167.7636719  32.9165726  72.3064957 167.9561920  32.4286575
  70.8549805 166.4778290  33.3310471  69.9305573 166.3955231  33.7295036
  71.7590408 165.3223572  33.3255692  72.7913895 165.6707306  33.3569679
  71.6173706 164.4546509  34.5530663  71.8088074 165.0810089  35.4243469
  70.6489868 163.9571686  34.6063843  72.6320953 163.4385223  34.4653816
  72.6287994 162.9855347  35.3117790  71.5699081 164.4911041  32.0296402
  70.4489365 164.4440613  31.5143414  72.6168365 163.8471069  31.4979401
  73.4977417 163.9283295  31.9852943  72.5429077 162.9308319  30.3251724
  71.4809723 162.7382965  30.1724339  73.0951385 163.7015839  29.1299000
  74.0792770 163.9824219  29.5050068  73.2398224 163.0219116  28.2901249
  72.2378540 164.8795013  28.5121613  72.0429230 165.7152863  29.1841545
  72.9667282 165.4959717  27.3470497  73.1445236 164.8943634  26.4556789
  72.5565491 166.4638824  27.0589809  73.9986038 165.6865234  27.6420708
  70.8332672 164.4418030  27.9188900  70.2439270 163.9818420  28.7121201
  70.3834457 165.3143158  27.4450798  70.9839249 163.7428741  27.0961571
  73.2332153 161.6181641  30.6094055  74.4469681 161.4299774  30.6266556
  72.3733521 160.6337128  30.8352566  71.3968887 160.8452301  30.6873112
  72.8322678 159.3228149  31.4058876  73.7873993 159.4633026  31.9119396
  71.8766174 158.8378906  32.4968376  70.8937912 158.7753906  32.0296707
  72.1075134 157.8163757  32.7990036  71.7439499 159.8766937  33.9584351
  70.9228897 159.0840759  34.6530914  72.9940643 158.2918243  30.2454548
  72.6343079 158.6202850  29.1022186  73.5598755 157.1118164  30.4931488
  73.7538071 156.9062042  31.4627953  73.4796677 156.0206757  29.5268860
  73.5760498 156.4590607  28.5335960  74.6823349 155.1363373  29.7680740
  75.5401001 155.7277985  29.4479084  74.8166122 155.0321198  30.8447399
  74.5633163 153.5713806  28.8112202  75.8314362 153.5276947  28.3930683
  72.1133881 155.2855530  29.6398277  71.6425095 155.0463867  30.7389812
  71.5144424 154.8928986  28.4945946  71.9432373 155.2262878  27.6430759
  70.2613373 154.1761169  28.4273224  69.5317459 154.7432556  29.0053768
  69.7888794 154.1629791  26.9545174  69.7233963 155.2027893  26.6341839
  70.6274109 153.7551422  26.3900528  68.4805603 153.5457916  26.6709442
  68.4951324 152.5302734  27.0667038  67.6960526 154.1427612  27.1359959
  68.2096024 153.3713074  25.1400776  69.1198120 153.0518188  24.6325893
  67.5909882 152.4780273  25.0536919  67.6498260 154.6747742  24.4688396
  66.8698425 155.0112610  25.1518459  68.4734039 155.3887787  24.4728203
  67.2502289 154.4352264  23.0326309  66.4384766 153.8423920  22.9340076
  66.9309845 155.2914276  22.6024075  67.9750671 154.0280914  22.4590931
  70.2844925 152.7595520  28.9197826  69.3316956 152.3236084  29.6163692
  71.4141006 151.9592438  28.7192783  72.2301712 152.3071289  28.2364712
  71.3808823 150.6418762  29.3002300  70.4272766 150.2075806  29.0000229
  72.3895798 149.7238922  28.5362015  72.0531693 149.6146545  27.5051861
  73.3668442 150.1958771  28.4348450  72.4730606 148.3188324  29.1712360
  72.8150406 148.4383850  30.1992722  71.4805145 147.8709869  29.2199383
  73.2878113 147.3306732  28.3050098  74.0148621 147.6558380  27.3404903
  73.1689148 146.0574036  28.6217346  73.6496735 145.2632904  28.2237892
  72.6010590 145.8276062  29.4247456  71.3959274 150.5396729  30.8413296
  70.6522217 149.7467499  31.4425583  72.0142670 151.4920044  31.5197716
  72.5799713 152.1147156  30.9609051  71.9278183 151.7202301  32.9924736
  71.8619385 150.7640228  33.5115128  73.2351761 152.4532013  33.4031906
  73.2769775 153.4621277  32.9928055  73.0448151 152.6347656  34.4609718
  74.8659363 151.5933685  33.1774750  75.6832123 152.2664795  33.9922523
  70.6304245 152.4844208  33.3817787  70.1320724 152.2983704  34.5258331
  70.2119370 153.4263306  32.5383911  70.7934113 153.5376892  31.7201061
  69.2501450 154.5473175  32.8467827  69.1266632 155.1241608  31.9302082
  67.8302994 153.9675598  33.0945816  67.8843002 153.3580475  33.9966240
  67.1422348 154.8080139  33.1856461  67.4129105 153.1276703  31.9298801
  67.6744308 153.7062988  31.0439320  67.9728088 152.1925507  31.9425545
  65.9253082 152.8101349  31.8697567  65.0391541 153.2012329  32.6342163
  65.5506134 151.9372559  30.9375877  64.6017380 151.5944519  30.8906078
  66.2542725 151.6559906  30.2698593  69.7089005 155.5364532  33.9030342
  69.4447174 156.6920929  33.6711960  70.3729477 155.0859680  34.9007874
  70.3270493 154.0871277  35.0432892  70.6819153 155.9307861  36.0571556
  70.0310669 156.8050537  36.0452156  70.2403412 155.0803680  37.2808762
  70.2482071 155.7408752  38.1479187  69.1828079 154.8202820  37.2351570
  71.1160507 153.8660431  37.6090164  71.9829865 153.4239655  36.7988586
  70.9360886 153.2643585  38.6510849  72.1138000 156.4762268  36.2530479
  72.4374619 157.3166504  37.0818710  73.0750885 155.9313965  35.5394859
  72.7857742 155.1671143  34.9459648  74.4776535 156.3717346  35.4975815
  74.8212967 156.4773865  36.5265846  75.3245392 155.2819214  34.8151665
  74.9395065 155.3304596  33.7965889  76.8423843 155.4273376  34.8773232
  77.1246796 155.0198364  35.8480721  77.2937241 154.7643890  34.1391563
  77.1607132 156.4648743  34.7758598  75.1173325 153.9709167  35.3172646
  74.5257111 153.9974670  36.0728302  74.6684799 157.6888123  34.7713127
  74.4725723 157.7987671  33.5577736  75.1544113 158.7269287  35.4695587
  75.2943115 158.5263214  36.4494972  75.5597000 160.0489502  34.9063988
  74.6850357 160.4182587  34.3709793  75.8532867 160.9934692  36.0226402
  74.9940491 160.9927063  36.6933212  76.7461472 160.5532379  36.4666023
  76.1392212 162.3945007  35.4546928  76.8974380 162.3233337  34.6748581
  75.2956772 162.8336487  34.9220772  76.7638855 163.3042450  36.4884453
  77.2110977 162.8268585  37.5603943  76.7862854 164.5385437  36.2187195
  76.7384491 159.8998413  33.8798981  77.8486023 159.5163422  34.2761078
  76.5268250 160.2436066  32.5627213  75.5941086 160.5441437  32.3181267
  77.6024933 160.3249512  31.5974007  78.5240402 159.8552551  31.9412632
  77.1922455 159.5394135  30.3547020  76.1034851 159.5128021  30.3100719
  77.7023773 160.2641602  29.0538216  78.7760773 160.3372803  29.2268524
  77.6116867 159.6433563  28.1624889  77.2781677 161.2445831  28.8371563
  77.6865768 158.0749359  30.3214226  77.2224884 157.6411743  29.4356594
  78.7580414 157.9199524  30.1947765  77.2488480 157.2067261  31.5020771
  76.1691666 157.1881866  31.6505280  77.7693253 156.2507172  31.4450912
  77.5431366 157.6980896  32.4294739  77.9873962 161.7816620  31.3498898
  79.1629410 162.1017914  31.3585014  77.0452805 162.6271515  31.0422478
  76.0827026 162.3249359  30.9952202  77.2823486 164.0579834  30.8532887
  78.0884247 164.2771454  31.5535126  77.7429886 164.2799377  29.3807983
  78.5017776 163.5760956  29.0388393  76.5502014 164.1519012  28.3309689
  75.9266052 165.0444946  28.3811779  76.8778000 164.0648651  27.2950134
  75.9672699 163.2628021  28.5713806  78.3092422 165.5853424  29.2033176
  79.2682648 165.5928650  29.2460022  76.1436081 164.9798584  31.3299961
  75.2159119 164.5278473  32.0269852  76.2252274 166.2661743  30.9795609
  76.9427567 166.6045685  30.3544655  75.2711487 167.2785492  31.4694862
  74.2967148 166.7901154  31.4652958  75.6892395 167.8189392  32.8109856
  75.6385498 167.0180206  33.5485954  77.0636520 168.4131317  32.8661766
  77.0544891 169.3189240  32.2598991  77.3492584 168.7207642  33.8721046
  77.7906799 167.6955414  32.4859276  74.8645325 168.9477539  33.2612495
  74.0877228 168.6020203  33.7069397  75.1395187 168.3972015  30.3917599
  76.0385361 168.6843262  29.6735249  73.9621277 169.0225677  30.3853111
  73.2446060 168.6581726  30.9956226  73.6345367 170.1765594  29.5270710
  73.5205765 169.8129730  28.5058365  72.2837372 170.7257233  29.9921494
  71.4694290 170.0359497  29.7703533  72.2699814 170.8796692  31.0711365
  71.9380493 172.0239868  29.2486782  72.7581482 172.7301788  29.3784313
  71.7839127 171.8422089  28.1850491  70.6366196 172.6799927  29.7441139
  69.8718338 171.9075317  29.6634007  70.8145752 173.0516815  30.7532120
  70.2785568 173.8269958  28.8853397  71.1774902 174.4356995  28.7879295
  70.0348816 173.5348358  27.8638859  69.1301880 174.6650238  29.3980236
  69.1880646 175.0745697  30.3194408  68.9407501 175.4555969  28.7986889
  68.2963257 174.0985107  29.4601307  74.7921448 171.2084198  29.5769272
  75.1518021 171.7560425  28.4973507  75.4351501 171.5433502  30.7212582
  75.0518799 171.1584778  31.5727749  76.3959732 172.6628571  30.7814102
  76.0199051 173.5610504  30.2915974  76.7229538 172.9703827  32.2404709
  77.1173553 172.1223297  32.8002548  77.5375977 173.6943359  32.2220459
  75.6322784 173.7018890  33.0555649  74.8069153 174.4545746  32.5008888
  75.4521561 173.4232483  34.2826309  74.5822754 173.6504822  34.7428246
  76.0257645 172.7178345  34.7224770  77.6748123 172.3284149  29.9431229
  78.3271027 173.2193756  29.4120903  77.9847946 171.0264740  29.7557220
  77.3724747 170.3536835  30.1944809  79.1874924 170.6893921  28.9394188
  79.9692459 171.4319153  29.0994453  79.7737122 169.3333893  29.4599571
  79.0629425 168.5173340  29.3297215  80.6200027 169.0675354  28.8265400
  80.2184830 169.2390137  30.8404331  79.4014282 169.4752350  31.5221348
  80.5231705 168.2036285  30.9929218  81.4051437 170.1123047  31.2410107
  81.9703522 170.7989044  30.3800602  81.8791428 170.0924225  32.4285927
  78.8985596 170.6212006  27.4465847  79.8191147 170.5126953  26.6353092
  77.6642609 170.7589569  27.0110607  76.9359894 170.7897797  27.7101822
  77.2951202 170.8076935  25.5742226  77.7926559 169.9296722  25.1623631
  75.7161713 170.6745148  25.3160439  75.2101746 171.4217377  25.9273834
  75.3800430 170.8962708  23.8052006  75.9516220 170.1962891  23.1957607
  74.3036041 170.8976898  23.6338177  75.6968079 171.8965607  23.5099468
  75.2177200 169.2837067  25.6719627  75.7780457 168.6177063  25.0157776
  75.4507141 169.1371460  26.7266369  73.7241135 169.1218872  25.5228920
  73.4107666 169.1077271  24.4789944  73.3526459 168.2601471  26.0774212
  73.3090744 169.9828186  26.0469685  77.9129791 172.0137634  24.8933468
  77.7586060 173.1362000  25.4534779  78.6257095 171.8552551  23.7565861
  78.7343597 170.9615021  23.2988720  79.2188644 172.9318390  23.0105610
  78.6009979 173.8155975  23.1696472  80.6585617 173.2373199  23.4356842
  80.9097672 174.2942352  23.3466892  80.7222290 173.0514069  24.5078259
  81.7535324 172.3237000  22.8492908  82.0960464 171.0868073  23.4452763
  81.4830551 170.7014618  24.2466202  83.1915131 170.3314056  22.9232101
  83.3203583 169.3984528  23.4517937  83.9423523 170.8316803  21.8400898
  84.8633957 170.3690796  21.5174656  83.6228790 172.0624847  21.2697620
  84.2620239 172.5298920  20.5353050  82.5724106 172.8170319  21.8311615
  82.3620911 173.8105774  21.4637280  79.2053528 172.5969391  21.5056076
  79.2757339 171.4390564  21.0898781  79.0138092 173.6564636  20.7267590
  78.8379593 174.5485840  21.1664009  78.7133179 173.5632477  19.2753944
  78.1482620 172.6524048  19.0774555  77.7556534 174.7073975  18.8582516
  78.1970978 175.6867371  19.0429974  77.5786362 174.5067596  17.8015995
  76.4898453 174.6147003  19.5375767  76.1357880 175.4883881  19.7190361
  79.9688034 173.4822998  18.4367790  80.5527649 174.4849243  18.0375690
  80.4130478 172.2654724  18.2535286  79.9864578 171.4765625  18.7180061
  81.6553650 171.9131927  17.4923801  82.4540176 172.6289673  17.6870995
  82.2536850 170.5293884  17.9938011  82.4289856 170.6327209  19.0646400
  81.4974365 169.7888641  17.7333736  83.5893021 170.1871796  17.2642002
  83.3881836 170.2216187  16.1934681  84.7045441 171.1831207  17.5980453
  84.8494797 171.2542877  18.6760197  85.6205597 170.8457794  17.1130638
  84.5408478 172.2126160  17.2795563  84.1340103 168.8188171  17.5975780
  83.5695190 168.0061798  17.1403370  85.1509552 168.6669922  17.2358017
  84.1679001 168.6153107  18.6678753  81.3997345 171.9848175  15.9306459
  82.3914108 172.2247009  15.1757689  80.1317596 171.9683228  15.4704971
  79.3978043 171.9458466  16.1639709  79.7243042 172.2044983  14.1029711
  80.6151886 172.1846008  13.4752598  78.7447433 171.0308838  13.7706251
  79.1310425 170.0456543  14.0317822  77.7856598 171.0974121  14.2842665
  78.6012192 171.0154266  12.4198380  78.3370590 170.1571503  12.0804424
  79.0235901 173.5777130  13.9806175  78.5556793 174.1248169  14.9537649
  78.8066254 174.0061798  12.7615480  79.3136368 173.5164032  12.0382462
  77.7726669 175.0014038  12.3453178  77.6552887 175.8297424  13.0440168
  78.1444168 175.7033844  11.0012856  78.1573715 175.0292969  10.1448250
  77.3808899 176.4370117  10.7425756  79.4784622 176.4746246  11.0622454
  80.3255539 175.7915649  11.1253061  79.5628433 177.2406616   9.6782055
  78.8183365 178.0237732   9.5348177  80.4971161 177.8021240   9.6799669
  79.5853729 176.5242615   8.8570185  79.6776810 177.5148621  12.1214685
  79.7030334 177.0191650  13.0919065  80.6551666 177.9693909  11.9601097
  78.8111496 178.1746979  12.1640978  76.3482437 174.4182892  12.2715645
  75.3155899 175.0814819  12.3059940  76.2918701 173.0659332  12.4628763
  77.1368027 172.5127106  12.4510641  75.0577774 172.3069000  12.7349052
  74.2551117 172.8250732  12.2101936  75.1270599 170.8261566  12.2253704
  75.9221115 170.2707825  12.7229300  74.2093735 170.2918091  12.4711981
  75.4563293 170.6881104  10.4152527  75.5391312 169.3565674  10.3442392
  74.6890717 172.4560242  14.2443180  73.7728119 171.7648621  14.7077770
  75.3722458 173.2747498  15.0351143  76.0570679 173.8652039  14.5851345
  75.1799240 173.3529205  16.4554119  75.5909042 174.2777710  16.8601894
  74.1211395 173.3328400  16.7136364  75.9130173 172.2324829  17.2538452
  77.0104599 171.8695984  16.8194370  75.3676910 171.7480927  18.3680649
  74.1544418 172.2712555  18.9620876  73.2609024 172.2341309  18.3389339
  74.3237762 173.2984619  19.2850170  73.9624252 171.3336487  20.1155014
  73.4618301 170.4318848  19.7629051  73.4552689 171.8347778  20.9399834
  75.2903137 170.8662109  20.5458641  75.1453781 169.9167938  21.0613289
  75.7871933 171.5917969  21.1898575  76.0162201 170.6900482  19.2047215
  77.0718765 170.9096069  19.3643761  76.0333252 169.2387848  18.6911964
  76.6237564 168.3241577  19.2760582  75.3125305 168.9345551  17.6088963
  74.7545166 169.6405945  17.1503887  75.1726990 167.5710297  17.0986862
  76.1017151 167.0200653  17.2452545  74.0754547 166.9747772  17.9515705
  74.0845337 167.3098602  18.9887447  73.1576538 167.2677765  17.4417744
  74.0334625 165.4390259  17.9900646  74.0119171 165.0641785  16.9667702
  74.8122406 165.0579834  18.6506805  72.4703445 164.8893280  18.8505344
  71.2511749 165.2048798  17.5549679  71.3057175 164.3946686  16.8278656
  70.2249298 165.2354736  17.9209976  71.4510651 166.1511993  17.0523434
  74.8800964 167.5398712  15.6269579  74.2393036 168.4162292  15.0987358
  75.3351135 166.4597015  14.9708557  76.0540009 165.9131622  15.4231644
  74.8677521 166.1520233  13.5745773  73.9268112 166.6248779  13.2932386
  75.8879166 166.6569977  12.5502529  76.8528061 166.1821594  12.7280416
  75.5845261 166.5114288  11.5134954  76.0409241 167.7047424  12.8089266
  74.7518234 164.6015472  13.4132195  74.7692871 163.8864746  14.4304571
  74.5708542 164.1535034  12.1575613  74.8430176 164.7730713  11.4077873
  74.6568298 162.7615051  11.8774986  74.6448746 162.1951904  12.8087559
  73.3276138 162.2855682  11.1525106  73.1786118 162.8491211  10.2314730
  73.4873886 161.3021698  10.7103806  72.4085693 162.4076996  11.7256937
  75.9363327 162.4693604  11.0115938  76.1258087 163.1553802   9.9840603
  76.7403412 161.4296570  11.3885326  76.5561295 161.0860138  12.3202381
  77.9721146 161.0535736  10.7038670  78.0461960 161.6600494   9.8011999
  79.1764374 161.4821472  11.5581913  79.2838364 160.7976074  12.3996048
  80.0575790 161.4248047  10.9191227  79.2665253 162.9698639  12.0538063
  79.6670990 164.0757904  11.2314491  79.9401016 163.9250336  10.1974545
  79.8125458 165.3179779  11.7764235  79.9922638 166.1302490  11.0877323
  79.4615021 165.5680847  13.1159182  79.4865494 166.8231506  13.6219339
  79.8864365 167.4621277  13.0274582  78.8947372 164.4936829  13.9223633
  78.6155167 164.6465302  14.9543886  78.8284149 163.1891174  13.3720779
  78.4939194 162.3436737  13.9549494  78.0504150 159.5373230  10.3779993
  77.2001724 158.8025665  10.7601137  79.0472946 159.0656281   9.6215029
  79.7196121 159.7634735   9.3367119  79.1669083 157.5860748   9.2984343
  78.4621048 157.0156860   9.9034128  78.6823730 157.2709808   7.8493509
  78.7951736 156.2097015   7.6278720  77.2417526 157.5216217   7.7468271
  77.0742188 158.5456085   8.0807076  76.9123154 157.4970398   6.7080917
  76.6801605 156.7826080   8.3182955  79.4140854 158.0863953   6.7840996
  80.4720612 157.8512421   6.9002399  78.9760056 157.6954651   5.8657508
  79.0952988 159.1128693   6.9652267  80.4795151 156.8648529   9.4787130
  81.5470963 157.3418427   9.0873995  80.4650269 155.5784760   9.9774370
  79.5914993 155.1478882  10.2451048  81.6677246 154.6834717   9.9628572
  82.4680710 155.3784943  10.2167931  81.6295090 153.6429901  11.1269655
  82.6654053 153.3683167  11.3258820  81.1870575 154.0753632  12.0243969
  80.9060593 152.2914886  10.8254442  80.0483170 152.2274628   9.9723978
  81.3250885 151.2413635  11.3799124  80.9283829 150.3151855  11.3097572
  82.0173416 151.4457092  12.0864019  81.8993454 154.0747681   8.5850477
  80.9996948 154.1499481   7.6881003  83.0090179 153.3020020   8.3312626
  84.1819305 153.3253937   9.1556549  84.1191559 152.6456451  10.0054207
  84.4137039 154.3167419   9.5450325  85.2984390 152.7057953   8.3006449
  85.9042587 152.0977631   8.9724970  85.9104385 153.4840546   7.8447413
  84.6585846 151.8342133   7.2580991  84.5824890 150.8397522   7.6978216
  85.2033615 151.9190521   6.3178244  83.2976074 152.5294647   7.0970201
  83.3833694 153.3152466   6.3464866  82.2041321 151.5402679   6.7425084
  81.8889694 151.2918396   5.5334802  81.5876770 150.9183350   7.7260160
  81.8526382 151.1182709   8.6799173  80.4904251 149.9352112   7.4759002
  80.7373886 149.6036682   6.4673376  80.5900421 148.7295990   8.4099865
  80.1042175 149.0202942   9.3414211  79.9517059 147.9889526   7.9282460
  81.9919128 148.2083435   8.6443682  82.7682877 148.5149536   9.8033381
  83.9819489 147.9855347   9.5636263  84.8161392 147.8936005  10.2433891
  84.0495453 147.5141907   8.3241253  84.8748779 147.0457764   7.9784184
  82.7723541 147.5437164   7.7419562  82.4031219 147.2111664   6.7830644
  79.0639267 150.5555267   7.4833465  78.1122284 149.8966827   7.9009719
  78.8759918 151.7814178   7.0448356  79.6984787 152.3675537   7.0365233
  77.5782242 152.4057465   6.6421666  77.7616730 153.4015961   6.2387695
  77.1245651 151.8519440   5.8202186  76.5153809 152.6986237   7.7805877
  75.5157852 153.2521362   7.4204550  76.8194885 152.3577423   9.0525475
  77.6680603 151.8298340   9.1986370  75.9824982 152.7933807  10.1927919
  74.9628525 152.4280701  10.0704670  76.5868149 152.1855621  11.4917259
  76.8579330 151.1599884  11.2411385  77.5077820 152.7265167  11.7091703
  75.5729218 152.1315155  12.6670399  74.7323074 151.0309753  12.7570133
  74.8760452 150.1668243  12.1253681  73.6641617 150.9809418  13.6642628
  73.1174698 150.0570526  13.7824545  73.4868240 152.1147003  14.5185108
  72.5000916 152.0577087  15.4670553  71.7689972 151.4771423  15.2433462
  74.3353424 153.2543640  14.4231405  74.2335587 154.0166931  15.1813593
  75.3439407 153.3276978  13.4108839  75.9642181 154.1987457  13.2594509
  75.9987411 154.3010101  10.3826818  77.0535583 154.9287109  10.3035812
  74.8159561 154.9130249  10.7017365  74.0162354 154.2997437  10.6351652
  74.6216583 156.3353577  10.8967342  75.4953766 156.7337189  10.3809652
  73.4333725 157.0081024  10.2103119  72.5214615 156.7676544  10.7568464
  73.6296921 158.5380707  10.3092985  74.5391617 158.8880310   9.8209238
  72.8424225 159.0906525   9.7965040  73.6005020 158.8861542  11.3418150
  73.4016190 156.5519867   8.6879053  73.5376663 157.3844147   7.9974952
  74.1553497 155.7908630   8.4862041  72.0802002 155.9404602   8.2658577
  71.3965225 156.7765961   8.4126501  72.1150208 155.5795593   7.2379293
  71.8623123 155.1314392   8.9630938  74.6942215 156.6422729  12.4549036
  73.8866043 156.2520599  13.2810326  75.7705917 157.3048096  12.8006086
  76.4804001 157.4499359  12.0968895  76.1052246 157.6636200  14.1781645
  75.5676193 157.0000458  14.8554726  77.6192017 157.3611908  14.4630919
  78.1963882 157.7103119  13.6068974  77.9484177 157.9429932  15.3240280
  77.9107819 155.9396820  14.7221155  77.4975433 155.1390076  15.7597218
  77.9867020 153.9309235  15.5182791  77.7521667 153.0478821  16.0941563
  78.7531967 153.9503326  14.4109259  79.3001633 153.2039642  14.0061464
  78.6916580 155.2211609  13.8656940  79.3130264 155.6068726  13.0710068
  75.7257462 159.1507721  14.3780537  76.3286819 160.0018768  13.8013000
  74.7238388 159.4398651  15.2352734  74.2344055 158.7066040  15.7281084
  74.3239517 160.7989349  15.6902218  74.6745071 161.4928284  14.9261990
  72.8120728 161.0649872  15.7385521  72.2995071 160.3538208  16.3863335
  72.6290131 161.9856873  16.2925529  72.0897980 161.2764435  14.4212017
  72.6044388 162.0864868  13.9044247  72.2998505 160.4061584  13.7994385
  70.5859985 161.5958099  14.6319046  69.9391861 160.7246857  15.2918348
  70.0369873 162.5705566  14.0266428  75.1004944 161.1219025  16.9921913
  74.7158890 160.6297302  18.0746365  76.1387177 162.0010071  16.9607811
  76.3748703 162.5093842  16.1206150  77.0144577 162.2585602  18.1070976
  76.6409225 161.6775208  18.9502811  78.5182419 161.8343201  18.0061836
  78.9809799 161.9326172  18.9881783  78.7056961 160.3914642  17.5692997
  77.9927139 160.0607147  16.8140774  79.6671906 160.2252808  17.0834923
  78.6545029 159.7235413  18.4291534  79.1670837 162.5970612  17.0614452
  78.8038712 163.4703674  16.8971310  76.8698959 163.6856689  18.6767311
  77.1582260 164.6460266  17.9528713  76.7106171 163.8506012  19.9740334
  76.6514664 162.9859161  20.4926109  76.7324219 165.0589600  20.7672291
  76.2841110 165.8839569  20.2136021  75.7328415 164.8179779  21.8932285
  74.7345047 164.6278229  21.4991875  76.0597076 164.0210266  22.5611572
  75.5678482 166.0831604  22.7454205  76.5782242 166.4382477  22.9483070
  74.6697845 167.1411438  22.0657825  73.7384186 166.6853333  21.7297688
  74.4544907 167.9507446  22.7631321  75.0494308 167.6122284  21.1591148
  74.9566574 165.6820374  24.1282406  75.4464264 164.8101501  24.5618782
  74.8229446 166.6205444  24.6662369  73.9533463 165.2657013  24.0380344
  78.1659927 165.3645782  21.2156048  78.8334579 164.5347595  21.8171310
  78.6343994 166.5823669  20.9092636  78.1015167 167.1336975  20.2518635
  79.9450150 167.1383209  21.3514862  80.6267776 166.3059692  21.5261402
  80.4630585 167.9521332  20.1702118  81.3945618 168.4255676  20.4804745
  80.7800598 167.0704346  18.9705582  79.8513260 166.9893646  18.4057713
  81.5682755 167.6006165  18.4360294  81.1665268 166.1043091  19.2951508
  79.6587753 169.0279083  19.7108402  79.9266357 169.8454895  20.1367855
  79.8678513 167.8567657  22.7274532  79.0077896 168.7240601  22.9452267
  80.6524734 167.4218903  23.6840706  81.2174377 166.6062469  23.4952564
  80.7284698 167.9645081  25.0968647  80.4265976 169.0115967  25.0728474
  79.8381348 167.1548462  26.1140518  79.9193192 167.7129669  27.0467949
  78.3678513 167.0259552  25.6864471  78.4026031 166.2530365  24.9186516
  77.7572327 166.6803284  26.5205917  77.9641342 167.9255524  25.2218723
  80.2602234 165.7215424  26.4215565  81.1338501 165.7663879  27.0718441
  79.4928207 165.2010193  26.9944859  80.4964676 165.1490784  25.5245800
  82.1949844 167.9140015  25.6317272  82.9267502 166.9544373  25.4243622
  82.6593246 169.0077362  26.2595119  82.1004715 169.8146515  26.4975586
  84.0388641 169.1143646  26.7601719  84.7291565 169.0361786  25.9202328
  84.2519455 170.4241028  27.4757118  83.6280365 170.4992981  28.3663235
  85.2927017 170.6017456  27.7465687  83.9950485 171.6340790  26.5725861
  84.8735352 171.9002686  25.4889488  85.5785446 171.1449738  25.1744766
  84.7444000 173.0804443  24.6982136  85.4003906 173.3033752  23.8697357
  83.6457901 173.9116669  24.9586754  83.4748154 175.0882263  24.3342342
  83.7535934 175.0337067  23.4172211  82.8531570 173.7114563  26.1382294
  82.0724640 174.4254761  26.3552780  83.0139313 172.5699615  26.9230556
  82.4258194 172.4136963  27.8153038  84.3285904 167.9830170  27.8123055
  85.4346771 167.4119568  27.7812557  83.3287201 167.5164948  28.5881596
  82.4728012 168.0203552  28.7715187  83.5924149 166.5229492  29.6141472
  84.5371857 166.0123596  29.4276161  83.8408279 167.2429657  30.9712849
  84.5192719 168.0463409  30.6842022  82.9188156 167.7089844  31.3188801
  84.4910049 166.4658661  32.1167412  83.8396378 165.6144562  32.3140182
  85.4175949 166.0485382  31.7225800  84.7828217 167.3318787  33.3877640
  85.3482895 168.2064362  33.0660782  83.7971573 167.6465149  33.7306328
  85.5107040 166.5286407  34.4949036  85.3021393 166.9834900  35.4632645
  85.1736069 165.5029755  34.3449135  86.9767303 166.5564575  34.3121681
  87.3696518 167.4813080  34.4139519  87.3589172 166.1413269  35.1498413
  87.2385559 166.1655273  33.4184532  82.5289307 165.4357147  29.7526226
  81.3698883 165.6664276  29.4579754  82.8750610 164.2240448  30.1252880
  83.8699112 164.1059723  30.2534943  82.0305710 163.0977020  30.4104958
  81.0069962 163.3511353  30.6864719  81.8090897 162.2592773  29.1102543
  82.8320084 162.0245972  28.8158722  81.1258316 161.4179840  29.2263794
  81.3885193 162.9858093  28.4149990  82.6152649 162.2912598  31.6144619
  83.8153305 162.1452484  31.8067284  81.7176132 161.8359985  32.4699059
  80.7311401 161.8744049  32.2566032  82.0529327 161.4112091  33.8180695
  82.9192200 162.0229492  34.0698967  80.9296875 161.8905792  34.7547302
  79.9046021 161.5851746  34.5448875  81.1651611 161.4991760  35.7444077
  80.8901215 163.7049713  34.7530823  79.5928497 163.8896027  35.0136452
  82.3243027 159.9495544  33.9547081  83.5063095 159.5490723  33.9547882
  81.3150101 159.1259613  33.9963570  80.4048996 159.5492859  33.8840523
  81.3201370 157.6422882  34.0586624  82.1474686 157.2861938  34.6725235
  80.0482025 157.1165009  34.7623825  79.2021866 157.6517944  34.3313141
  79.7711945 156.0646515  34.6918564  80.0572891 157.3709259  36.2629356
  80.9261856 156.9904938  37.0589142  79.1348495 158.1627960  36.6156731
  79.0431976 158.3775024  37.5983238  78.5022736 158.5911102  35.9549904
  81.5314331 157.0219879  32.6327744  80.8081055 156.1173401  32.1589775
  82.6368561 157.3873901  31.9325981  83.1221924 158.2148590  32.2485695
  83.1555023 156.6837921  30.7804031  82.4969254 155.8724518  30.4704056
  83.2133484 157.6217346  29.5380745  83.9440918 158.4165802  29.6874599
  83.5882950 157.0241089  28.7071934  81.8827515 158.1770935  29.0300484
  81.4142990 158.7726440  29.8135986  82.0767746 159.0267944  27.7977142
  82.4539337 158.5190277  26.9100037  81.0882187 159.3252106  27.4487038
  82.7104645 159.8793488  28.0420113  81.0538635 156.9376984  28.5511990
  80.7424164 156.4342194  29.4664097  80.1495895 157.3477478  28.1014671
  81.5524063 156.2693329  27.8491688  84.5693741 156.0658264  31.0166798
  85.3839264 156.6005402  31.7803535  84.9094849 154.9487457  30.3086853
  84.1904449 154.7013397  29.6439533  86.1754532 154.2808533  30.1929607
  86.8588486 154.8597107  30.8142338  86.0264206 152.8309479  30.7570839
  85.3781967 152.2221527  30.1267872  87.0281601 152.4026794  30.7224407
  85.5713425 152.7147827  32.2547722  84.8346329 153.5172119  32.8114510
  85.9288330 151.6437988  32.9302177  85.6993942 151.5391846  33.9082375
  86.2718353 150.8198700  32.4573746  86.6203079 154.2982483  28.7033653
  85.8328323 154.5815582  27.8286934  87.8934555 154.0540161  28.4842319
  88.4428177 153.7182922  29.2624264  88.4425354 153.9335022  27.1447506
  87.7513428 154.3053436  26.3883839  89.6549683 154.8553772  26.9519730
  90.5102615 154.4004822  27.4516201  89.8860397 154.9640961  25.8923111
  89.6329422 156.3020630  27.5079193  89.3498611 156.3005219  28.5605183
  91.0405273 156.9137421  27.2268944  91.3259201 156.7106171  26.1947117
  91.0972519 157.9665680  27.5033550  91.7462997 156.3701935  27.8550224
  88.6363449 157.1755829  26.7300320  87.6638260 156.6862335  26.6769199
  88.5760040 158.1486206  27.2175484  89.0151749 157.3355255  25.7205734
  88.8291473 152.5083160  26.7189217  89.3843689 151.7834930  27.5475788
  88.6808395 152.2566071  25.4116936  88.2202911 152.9536285  24.8440971
  89.2450790 151.0334473  24.7813091  89.9821014 150.6441803  25.4837074
  88.2751770 149.8846893  24.7034397  88.6667938 149.0025787  24.1968555
  88.0979080 149.5876465  25.7370968  87.0575409 150.3572540  24.0958042
  86.4044571 150.3988190  24.7981968  89.9145813 151.2690277  23.3776512
  89.5952988 152.2081757  22.6619225  90.8111954 150.3130493  22.9488926
  90.9613647 149.4672852  23.4801445  91.5973816 150.4305878  21.7452660
  91.9387589 149.4688263  21.3624096  91.0337677 150.9711456  20.9848518
  92.8846130 151.2170258  22.0199986  93.4198685 151.2853851  23.1229038
  93.3965683 151.8477173  20.9422493  92.9902725 151.6907654  20.0309925
  94.3083649 152.9726562  21.1091995  94.1503067 153.3046875  22.1352978
  95.7346954 152.5501404  20.7460289  95.6793442 152.0746765  19.7667618
  96.4408264 153.3704071  20.6170425  96.3206177 151.5462189  21.7338390
  95.6437454 150.6993713  21.8469238  97.2406311 151.1435852  21.3101063
  96.6199875 152.2766266  23.0427933  97.2599030 153.1508484  22.9230728
  95.6712799 152.5659637  23.4948406  97.3855591 151.2785950  23.8538418
  98.3909378 151.3537140  23.7933159  96.9525299 150.2719269  24.5694904
  95.7302322 150.1866302  24.8956757  95.1306381 150.9761353  24.7026386
  95.3169403 149.3339081  25.2452049  97.7654572 149.2764282  24.8887424
  98.6805801 149.1421814  24.4829922  97.3953018 148.5395050  25.4718533
  93.8460083 154.0601349  20.1159668  93.1289215 153.7082062  19.1891403
  94.1610870 155.3853607  20.3780270  94.8353958 155.8977661  21.5855122
  95.9142914 155.8290100  21.4463997  94.5671539 155.1928406  22.3724194
  94.3924561 157.3244019  21.8093338  95.1428223 158.0287476  22.1684017
  93.5245743 157.3544617  22.4681110  93.9688950 157.7556458  20.4006844
  94.7398224 158.2150879  19.7820625  93.1471100 158.4524994  20.5655479
  93.6006546 156.4356384  19.6117992  92.5582962 156.1860046  19.8100033
  93.9433212 156.5048981  18.1409416  95.1149521 156.2680206  17.7341385
  93.0062485 156.7835388  17.2423248  92.0391083 156.7370911  17.5296917
  93.3005447 156.7662811  15.7851057  94.3497467 157.0136414  15.6236000
  93.0355606 155.3490753  15.3103266  93.7252274 154.6345673  15.7596865
  92.0321808 155.0346985  15.5975504  93.2676392 155.2965240  13.9214315
  93.5791855 154.4144592  13.7057619  92.4555130 157.7034454  14.8910704
  91.3714981 158.1301727  15.3585205  93.0731049 158.1697235  13.7899361
  93.9959564 157.8350220  13.5524244  92.6010056 159.1698761  12.9018869
  91.8541336 159.7637787  13.4287291  93.7241516 160.0555725  12.3280687
  93.2940979 160.8166809  11.6770191  94.3780899 160.8043671  13.4998055
  94.7273254 160.1528931  14.3008814  95.2644958 161.3389740  13.1583853
  93.5980530 161.4208374  13.9465809  94.6517487 159.2409058  11.5241814
  95.3865891 159.7902222  11.2415905  91.8702087 158.5436401  11.6644974
  91.2057877 159.3102112  10.9591980  91.8758087 157.1907959  11.5385065
  92.3695221 156.6843567  12.2595243  91.1466141 156.5523834  10.4442530
  91.5152435 156.8892670   9.4753761  91.4199829 155.0554504  10.5294037
  91.0807571 154.7336121  11.5140085  90.8182297 154.5234833   9.7925119
  92.9396820 154.6657562  10.3740301  93.5304108 155.0507660  11.2052412
  92.9456100 153.5761566  10.4025698  93.4879913 155.0318298   8.9060812
  93.9516068 156.1592865   8.7112837  93.2677307 154.1995239   7.9924393
  89.6341324 156.8334808  10.3925753  88.8748474 156.3761597  11.2862310
  89.1983185 157.4341888   9.3412409  89.8905182 157.7442169   8.6742773
  87.7658615 157.7239838   9.0955687  87.6997070 158.1775665   8.1066360
  86.8964539 156.3941650   8.9799843  87.5726318 155.5622253   8.7830591
  86.4657059 156.1583557   9.9531002  85.8131256 156.3242798   7.8902297
  84.4369736 156.5345154   8.1952591  83.7869873 156.4699402   6.9701757
  82.7181244 156.4922943   6.8171091  84.6419601 156.1646729   5.9785085
  84.3623352 155.8887177   5.0480494  85.9168091 156.1389771   6.5181050
  86.8534088 155.7928467   6.1065607  87.1885910 158.7867889  10.0119286
  85.9463272 158.9942169   9.9176474  87.9775009 159.4495697  10.9147539
  88.9397354 159.1426392  10.9150581  87.3483887 160.3372040  11.9054995
  86.6880951 159.8228912  12.6037731  88.4840240 160.8778381  12.7413177
  88.9568405 160.0862579  13.3226509  89.3270721 161.1745300  12.1173458
  88.0654984 161.9743805  13.5479240  88.7812042 162.2847595  14.1074200
  86.5207214 161.5311890  11.3083830  86.8775940 162.2609100  10.3741980
  85.4395828 161.8997498  11.9759130  85.2292252 161.3203583  12.7760143
  84.4538193 162.9108276  11.5471802  84.3740005 162.7994690  10.4658260
  83.0889893 162.5887146  12.1551104  83.1584320 162.7507935  13.2307539
  82.2886353 163.2350006  11.7947865  82.6741104 161.1626282  11.9964132
  82.7739868 160.4498749  10.8425455  82.9659958 160.8903809   9.8753424
  82.5242310 159.1029358  11.0590992  82.5122299 158.3789825  10.3549299
  82.0581131 158.9222412  12.3059444  81.4946289 157.8544312  12.9512682
  81.2348175 156.8984222  12.5211811  81.1479797 157.9233246  14.2949686
  80.7811584 157.0612183  14.8321981  81.3590622 159.1160583  15.0365496
  81.1877823 159.0849915  16.1024284  81.8510132 160.2503815  14.3757229
  81.9683990 161.1430969  14.9721212  82.1955338 160.1818695  12.9945707
  84.9472122 164.3037262  11.7558928  84.2959976 165.2114258  11.3192244
  86.0926056 164.4719849  12.4015608  86.4422989 163.6076660  12.7898350
  86.6122818 165.7173920  12.9684277  86.0909348 166.5601044  12.5143938
  86.2800598 165.7357788  14.4191017  86.7961273 164.8953247  14.8832302
  86.5954361 166.6438751  14.9329166  84.8206253 165.6245728  14.7786598
  83.9458084 166.7345734  14.6650629  84.2087021 167.7129669  14.2908545
  82.5815201 166.5535736  15.0194511  81.8620453 167.3294525  14.8032246
  82.1227112 165.4461517  15.7100582  81.1057358 165.4643402  16.0731316
  82.9433136 164.3223572  15.8129215  82.5440750 163.4523163  16.3129425
  84.2539902 164.4586487  15.3915224  84.9105911 163.6183777  15.5624657
  88.1526337 165.8545380  12.6479292  88.9760590 165.2538605  13.3569317
  88.5969543 166.6840668  11.6100626  87.7478409 167.2971954  10.6206017
  87.4550323 168.2980042  10.9380245  86.8346329 166.7735901  10.3377876
  88.5543823 167.4561157   9.3441763  88.1120682 168.2456055   8.7366037
  88.4103394 166.5070343   8.8278427  90.0335159 167.7072144   9.9311247
  90.2944336 168.7380219  10.1708174  90.8140793 167.3710785   9.2486000
  89.9854126 166.7776337  11.1830196  90.2893372 165.7997742  10.8094873
  90.9516296 167.2098389  12.2458735  90.8291626 168.1308899  13.0522251
  92.1181488 166.5919495  12.2786827  92.2274170 165.8634796  11.5876656
  93.1632690 166.7225647  13.2478924  93.9903412 166.0984650  12.9094248
  93.4924393 167.7487946  13.4109917  92.8986206 166.0853729  14.5916452
  93.6074066 166.3979187  15.5414028  91.8734970 165.2767181  14.7385254
  91.2638931 165.1099243  13.9507055  91.5427322 164.5166779  15.9584074
  92.3686829 164.7457733  16.6317787  90.1796799 165.0146637  16.6277981
  89.4281845 164.8533020  15.8549337  89.9525452 164.4152985  17.5094357
  90.1588211 166.4615021  17.0796528  90.3567429 166.7412415  18.4327850
  90.3893051 165.9205170  19.1340370  90.2443237 168.0256805  18.8786469
  90.4827271 168.2460938  19.9086914  89.8963089 169.1155243  18.0552864
  90.0156326 170.3878937  18.4823685  90.0066071 170.4479065  19.4404488
  89.7321243 168.8251190  16.7035313  89.3718262 169.6592865  16.1198006
  89.8051910 167.4815369  16.2052097  89.5358200 167.1450043  15.2149658
  91.5114136 163.0246887  15.8451843  90.8543549 162.5274658  14.9639368
  92.2418900 162.2819672  16.6737461  92.8506927 162.7787628  17.3083115
  92.1141281 160.8592834  16.9213428  91.9714432 160.2777100  16.0105705
  93.4220123 160.3429718  17.5774403  93.7169342 161.0978699  18.3063221
  93.2062988 159.4567413  18.1742268  94.2737045 160.2423706  16.9046879
  90.8626251 160.5594940  17.7891483  90.6330185 161.2227173  18.8296795
  90.0590820 159.5634613  17.3431072  90.2417603 159.1450195  16.4421940
  88.9999771 158.9755707  18.1523552  88.4679947 159.7174683  18.7479076
  87.8834000 158.3745270  17.2764454  87.1719208 157.8875122  17.9433079
  87.4501572 159.2467041  16.7868423  88.2798157 157.5144958  16.1393051
  88.0484848 157.7578888  14.8394918  87.6776810 158.6645966  14.3847666
  88.6062241 156.7552032  14.0925922  88.5726318 156.7847290  13.0835829
  89.0078659 155.6486053  14.8000345  89.5668640 154.3983002  14.4994478
  89.7013016 154.1771088  13.4509258  89.8935623 153.5123291  15.5478144
  90.2841568 152.5654144  15.2054634  89.6282349 153.8919983  16.8668480
  89.8226547 153.1812134  17.6564007  89.1452408 155.1676788  17.1519966
  88.9171066 155.3698425  18.1880913  88.8169861 156.1226807  16.1612625
  89.5653839 157.8485870  19.0489635  90.5937195 157.2613831  18.7466793
  88.8775253 157.4735107  20.0828400  88.2787781 158.2234955  20.3976746
  89.3010559 156.3441925  20.9791698  89.6548386 155.5031586  20.3828392
  90.4399109 156.7334137  21.9315720  91.3604507 156.8620758  21.3622189
  90.3803024 158.0235443  22.8074379  89.6787033 157.9675598  23.6397400
  91.3980484 158.1493835  23.1768322  90.0652924 158.9062653  22.2509518
  90.6625061 155.6612549  22.8169918  91.5332336 155.7617493  23.2085724
  87.9880219 155.9382324  21.6674290  87.2436447 156.8033447  22.1267681
  87.6329422 154.6635590  21.5812416  88.3570709 153.9966736  21.3554173
  86.3133163 154.1642303  21.8228321  85.6250610 154.7071533  21.1750317
  86.1553345 152.6578674  21.4693718  86.9202881 152.0802155  21.9882870
  84.8648300 152.1141663  21.9059620  84.0544128 152.7076416  21.4827461
  84.7130661 151.0565491  21.6903057  84.7884903 152.1831818  22.9910984
  86.2943802 152.3187256  19.9652100  85.5465012 152.8616333  19.3872643
  87.2718582 152.7107544  19.6842537  86.3639832 150.8366699  19.5579052
  85.3646851 150.4015503  19.5448303  86.7770844 150.7607269  18.5520821
  87.0687790 150.3740692  20.2488213  85.9332581 154.4620209  23.3076344
  86.6350784 154.1250763  24.2930775  84.6619720 154.9070435  23.4545212
  84.1427231 155.2483978  22.6583118  84.0970306 155.2727203  24.7984123
  84.8675537 155.4279327  25.5535927  83.3442688 156.6233978  24.6444798
  82.4873734 156.4741669  23.9875431  83.0264359 156.9179535  25.6446381
  83.9763184 157.4197540  24.2515240  83.1567764 154.1131897  25.2375107
  82.3606339 153.6030884  24.4051228  83.2971649 153.6557007  26.5105724
  84.1033783 153.9834900  27.0230885  82.4250183 152.6433411  27.1335945
  81.5441284 152.5764923  26.4951172  83.2215729 151.3637085  27.1070442
  84.2590866 151.6206665  27.3206749  82.8806839 150.7843475  27.9650860
  83.2545547 150.4646149  25.8734360  82.2355728 150.1995239  25.5914688
  83.7202682 151.0373383  25.0714340  84.0538025 149.1851501  26.0642605
  85.2707901 149.1825409  25.9702606  83.3915787 148.0761414  26.4114609
  83.9576874 147.3347321  26.7986946  82.4067307 148.2079468  26.5925522
  81.8517532 153.1056519  28.4443245  82.5789261 153.7596588  29.2442989
  80.6754990 152.5470428  28.8432865  80.2062607 151.9725647  28.1578045
  80.0016022 152.8570862  30.0997658  80.0118713 153.9263000  30.3114166
  78.4891129 152.7491913  29.8312111  78.1773376 153.3912964  29.0074387
  78.2037582 151.7195740  29.6154385  77.6094208 153.2267761  31.3938637
  76.3542404 152.8666077  31.1115456  80.5133667 152.1214447  31.3281765
  80.6838531 150.9152374  31.2542267  80.6082001 152.8078003  32.5223999
  80.4539185 153.8017731  32.4311867  81.4772720 152.4171906  33.6301422
  82.3748169 151.9172058  33.2660980  81.8800812 153.6827850  34.3218613
  82.3960342 154.3327179  33.6151237  80.9672623 154.1627808  34.6746597
  82.8438644 153.3927307  35.4429626  82.2118683 152.9066772  36.1862106
  83.6620407 152.7559052  35.1065941  83.3651428 154.6886139  36.0175400
  82.5720291 155.3253937  36.4094582  83.8466263 154.4763641  36.9721184
  84.3634033 155.3499908  35.1286926  84.3652573 155.1144257  34.1465454
  85.3966141 156.1173706  35.4270973  85.8650742 156.3619537  36.6383362
  85.3943710 155.9452972  37.4288673  86.7443390 156.8175354  36.8369484
  86.1831512 156.6639099  34.5380821  85.9838486 156.6222534  33.5488167
  86.8889313 157.3619690  34.7243080  80.8541565 151.3103027  34.5056915
  81.4957047 150.4282379  35.0472641  79.4554291 151.2075195  34.4530334
  78.9599075 151.9526672  33.9847145  78.6775131 150.2598114  35.2673111
  79.3196487 149.8590393  36.0516281  77.4031372 150.9419403  35.8948517
  77.0318375 151.6591949  35.1628761  76.2590408 150.0318909  36.3459473
  76.4912720 149.1372223  36.9236412  75.4551773 150.5762177  36.8415604
  75.7706909 149.5968018  35.4739952  77.7775345 151.8948059  37.1345367
  78.2041855 152.7867737  36.6757812  76.8617783 152.2607117  37.5988579
  78.6247482 151.2384491  38.2079315  79.6569977 151.0157776  37.9377632
  78.7514114 151.8629150  39.0922966  78.1971130 150.2616119  38.4337959
  78.2508163 149.0223846  34.4360733  78.1323318 147.9223480  35.0480995
  77.9911652 149.1642456  33.1204567  78.0582047 150.0908813  32.7242889
  77.5345917 148.0298157  32.2614136  77.5388641 147.1142731  32.8529129
  76.0798569 148.2149353  31.8224716  75.6081009 147.2597046  31.5920467
  75.5664978 148.5146790  32.7361031  75.9544525 149.5251465  30.5181770
  76.0044785 150.5527191  31.3705349  78.3635559 147.7026978  30.9933338
  78.1612778 146.6390381  30.3728313  79.3618622 148.4882812  30.6560879
  79.6548080 149.2271271  31.2792912  80.2539520 148.2241516  29.5306759
  81.2807388 148.5721283  29.6434727  80.3919067 147.1442719  29.4764080
  79.7774048 148.6490784  28.1256218  80.4604874 148.4132538  27.1397400
  78.5601120 149.2481537  27.9850731  77.9541321 149.3418427  28.7876339
  77.9692459 149.6469116  26.6527271  78.0293961 148.8266602  25.9374123
  76.5559387 150.0781250  26.9070683  75.9955902 149.3860016  27.5356255
  76.5291138 151.0332184  27.4316368  75.7513275 150.2880249  25.5995121
  75.6955490 149.4355621  24.6923523  75.1100235 151.4151917  25.4193993
  74.6657028 151.4706421  24.5140800  75.2217255 152.1405945  26.1132450
  78.7594528 150.8326416  26.0597591  79.1833267 151.7654266  26.7818356
  79.0501785 150.7427673  24.7652416  78.9383926 149.8412628  24.3237801
  79.6542740 151.7558594  23.8729305  80.5980988 152.0969086  24.2983456
  79.9661102 151.0737610  22.5294724  80.8236084 150.4143524  22.6635151
  79.1439743 150.4846954  22.1230183  80.3368149 151.9455261  21.3975353
  79.7191772 152.0844879  20.1050434  80.4465027 152.9806671  19.4290981
  80.1473007 153.4593506  18.5083733  81.5020294 153.3976135  20.2017384
  82.1511917 154.1337738  19.9635220  81.4901733 152.6727600  21.3929138
  82.2391281 152.6762085  22.1710281  78.7870789 153.0276642  23.6766300
  77.5689240 152.9613953  23.4518452  79.4353485 154.1887054  23.7722778
  80.4426270 154.1182556  23.7494106  78.8605499 155.5156250  23.8960133
  77.7881165 155.4345245  23.7187500  79.0584030 156.0499115  25.3420448
  80.1101913 156.2217712  25.5707397  78.5413132 156.9959412  25.5024471
  78.5219498 155.1643372  26.4882088  79.1476212 154.2784576  26.5970955
  78.5372620 155.7210846  27.4251785  76.8455353 154.6281128  26.3660507
  75.9171677 156.1990356  26.5192451  75.8215866 156.6901245  25.5508499
  74.9367676 155.9381561  26.9178162  76.4215393 156.8366241  27.2453156
  79.5046997 156.5117340  22.9288902  79.6378326 157.6747894  23.2790298
  79.9258194 156.0502777  21.7244225  79.7599945 155.0851746  21.4770851
  80.6578598 156.9035034  20.7509003  80.4399414 156.5625000  19.7388115
  80.3367386 157.9437866  20.8037472  82.1242065 156.8918152  21.1868286
  82.6511154 155.8440399  21.5069332  82.7883682 158.0617065  20.9690933
  82.1882019 158.8179016  20.6723366  84.2525330 158.1721039  21.1406288
  84.7097549 157.3280029  21.6569023  84.8931656 158.0682831  19.7230282
  84.6667862 158.9517822  19.1261311  85.9741974 158.1281281  19.8490829
  84.6914902 156.8877716  18.8463898  85.6251221 155.9763336  18.5330009
  86.6225967 155.8987579  18.9397373  85.1766129 154.9984589  17.7140312
  85.8594513 154.3238678  17.3997974  83.7958145 155.1074066  17.4779510
  82.8260269 154.3645020  16.8389320  83.0717926 153.3522949  16.5535812
  81.5255814 154.9194794  16.7423668  80.7959747 154.4660339  16.0877953
  81.2145081 156.1786499  17.2621841  80.2257462 156.5807343  17.0976162
  82.1952896 156.9388428  17.9307480  81.9927902 157.9037323  18.3716583
  83.5072937 156.4069519  18.0455112  84.7137833 159.4628906  21.9041843
  84.0619888 160.5369873  21.8157978  85.8314819 159.3712769  22.5953503
  86.3414001 158.5001831  22.6310940  86.6376114 160.5472107  23.0519199
  86.0186691 161.3940277  23.3484135  87.5187836 160.1691284  24.2325535
  86.9062500 159.6322479  24.9568882  88.2552185 159.4808502  23.8177891
  88.2320709 161.3766327  24.9735489  88.8626633 161.9740906  24.3151417
  87.4738312 162.0278473  25.4084015  89.1056366 160.9756165  26.1128960
  88.5355148 160.4189758  26.8566780  89.8511887 160.3106079  25.6769905
  89.8419876 162.1083984  26.8182964  90.1597900 162.7835541  26.0237732
  89.1692276 162.7715454  27.3621159  90.9508591 161.6809540  27.6969929
  91.6144943 161.1342010  27.1671352  91.5594025 162.3912354  28.0781536
  90.5643158 161.0851593  28.4151154  87.5464172 161.0028076  21.8857803
  88.0617065 160.1029510  21.1772594  87.7911377 162.3032074  21.7644711
  87.3314514 163.0268707  22.2984180  88.6436768 162.8935852  20.7486763
  88.9492264 162.0294800  20.1587143  87.7830048 163.7223206  19.8161259
  87.1604080 164.4582825  20.3248940  88.4377823 164.2679443  19.1366634
  86.8878784 162.9373779  18.8470306  87.4101791 162.5927887  17.5600338
  88.3443069 162.9533234  17.1552944  86.5536423 161.8686676  16.7073498
  86.8758316 161.6210938  15.7066965  85.2592773 161.5684967  17.0698357
  84.5801086 161.0473938  16.4113579  84.7341156 161.9453735  18.3143845
  83.6950531 161.7210236  18.5052509  85.5712357 162.5921021  19.2409077
  85.1264114 162.9776611  20.1463757  89.7434921 163.6585541  21.3639717
  89.4956360 164.3961182  22.2958641  90.9696884 163.5935822  20.8669147
  91.0737076 162.9726715  20.0771313  92.2110443 164.3180847  21.2737522
  91.8274002 165.1791229  21.8210373  92.9980774 163.3886871  22.2532692
  93.9692688 163.8480682  22.4372883  92.2273636 163.1953430  23.5344181
  91.3631516 162.5425415  23.4116344  92.8802948 162.6604462  24.2240982
  91.8852081 164.2009888  23.7787952  93.3210754 162.1287231  21.7030869
  94.0985184 162.1489410  21.1402626  93.0205765 164.7546692  20.0090542
  93.1217804 163.9444427  19.1017284  93.4541550 165.9801636  20.0432873
  93.3928223 166.4687042  20.9251442  94.0344391 166.7070923  18.9391766
  93.2899399 166.6389618  18.1459656  94.1955948 168.1651764  19.3201351
  95.0004044 168.2340240  20.0520153  94.4455414 168.6495056  18.3761845
  93.2471008 168.6300507  19.5891399  95.4352036 166.1081085  18.5989475
  96.2156982 165.7990417  19.5146637  95.8718185 166.1372375  17.3503265
  95.2147217 166.3295898  16.6078129  97.2482910 165.7085571  16.8959160
  97.7379379 165.1081085  17.6626034  97.2200928 164.9643250  15.5664959
  98.2664185 164.7719269  15.3292513  96.5060959 163.6267395  15.6744118
  95.4268417 163.7268677  15.7896891  96.5908432 163.0169678  14.7749138
  96.7426147 163.0709839  16.5817680  96.5793991 165.6941986  14.5299330
  97.2285233 166.2146301  14.0509892  98.2826080 166.7677002  16.8362293
  99.4740143 166.4419403  16.7233887  97.8443680 168.0531158  16.8873444
  96.8595352 168.2748108  16.8548126  98.7364502 169.2717743  16.9922295
  99.7961349 169.0166626  16.9828033  98.5430679 170.1440582  15.7512197
  97.4642792 170.1822205  15.6000214  98.9136505 171.1588440  15.8960953
  99.0625229 169.5214539  14.4619846 100.0940857 169.2430267  14.6775284
  98.5187683 168.5991974  14.2573795  99.1070862 170.4080963  13.2035847
  99.5807877 171.3569183  13.4554625  99.6530838 169.9405518  12.3841944
  97.6538010 170.6210327  12.7248478  97.1394043 169.6643982  12.6334743
  97.1064987 171.2296600  13.4446735  97.6286011 171.3020020  11.4284801
  97.9612885 170.7779694  10.6317244  96.6663132 171.5646210  11.2699823
  98.1517868 172.1659241  11.4257994  98.6120911 170.0271454  18.3338680
  97.5149078 170.1124878  18.9516907  99.7440414 170.6148987  18.7142754
 100.5373993 170.4947357  18.1008911  99.9271317 171.3016663  20.0011177
  99.5685883 170.5257111  20.6774540 101.3585815 171.5171051  20.3269958
 101.5907593 171.6569214  21.3827629 101.9928741 170.6890564  20.0105991
 102.0084915 172.7460632  19.6964417 101.8534622 172.6127777  18.6257877
 101.4922409 173.6308594  20.0689144 103.5422211 172.8106384  20.0070934
 103.7137146 172.6444550  21.0706158 104.0070801 172.0275421  19.4081230
 104.0964279 174.1711426  19.6015491 103.4125137 174.9375610  19.9662151
 105.0627670 174.2721252  20.0956001 104.2993164 174.4071655  18.1701260
 103.4089508 174.3036804  17.7046642 104.5130692 175.3771973  17.9872513
 104.9922104 173.8253479  17.7212543  99.1221619 172.5948029  20.2524529
  98.8882370 172.8743896  21.4132576  98.7509384 173.3563690  19.2523479
  98.9727173 173.0212402  18.3257332  98.0224686 174.6712494  19.3730640
  98.1405792 175.0135193  20.4011745  98.6676102 175.7609863  18.4287357
  98.1807861 176.7281342  18.5540810  99.6655045 175.8461151  18.8589287
  98.8001251 175.4783020  16.9556503  98.9875946 174.2761688  16.5970764
  98.8061218 176.4810181  16.2067604  96.4692078 174.6203613  19.1701794
  95.7035904 175.6199646  19.3251553  95.9650345 173.4319458  18.9198418
  96.5524979 172.6203308  18.7923546  94.5216446 173.2604980  18.6089897
  94.1473465 173.9942017  17.8950748  94.2414703 171.9345703  17.8564625
  94.5099792 171.0803070  18.4779415  93.1857605 171.9637451  17.5867729
  95.0345306 171.8405151  16.5234203  94.5606461 172.5482330  15.8432255
  96.0802460 172.0263214  16.7684708  94.9547577 170.1359100  15.8251534
  93.1702194 169.9949493  15.3515387  92.7453003 170.9624023  15.0839558
  92.9657440 169.3125000  14.5265837  92.5668182 169.6596375  16.1950836
  93.6755447 173.2424164  19.8371487  93.9338455 172.3960876  20.7261944
  92.6582565 174.0265350  19.8362045  92.4727936 174.5597076  18.9986897
  91.7523880 174.2782898  20.9496403  91.9985580 173.5756226  21.7457333
  91.8850708 175.6906891  21.6092167  92.9207840 175.8695526  21.8980160
  91.5232544 176.3684845  20.8360558  91.0485382 175.8368835  22.7440662
  91.3862534 176.4727783  23.3790302  90.3218460 174.0269928  20.4679127
  89.9473648 174.7066650  19.4542446  89.5636215 173.1225891  21.0742264
  88.1891022 172.8337555  20.7392197  88.1297989 172.4874115  19.7074127
  87.5408859 173.6963348  20.8938217  87.7436600 171.7498779  21.7365704
  88.1310654 170.8344574  21.2893467  86.6603088 171.7807465  21.8528099
  88.6249771 171.9284058  22.9678783  88.8750763 170.9617767  23.4051151
  88.1983643 172.6918945  23.6184139  89.9481888 172.4768829  22.3654194
  90.3190536 173.2354584  23.0547161  91.0700607 171.4080811  22.2670994
  91.2070236 170.7620850  21.2345123  91.8463821 171.2419128  23.3010025
  91.7069016 171.8361359  24.1057091  92.7939224 170.0583038  23.2908783
  93.5075302 170.1595459  22.4731960  93.5824661 170.1785736  24.6012497
  94.0693130 171.1521759  24.6576233  92.8867264 170.3640900  25.4195633
  94.5931625 169.0832672  24.9064293  94.8662491 169.2385101  25.9501839
  94.0639954 168.1350098  24.8121910  95.8687515 169.0691833  24.1105347
  96.0294724 169.7196045  23.0642071  96.8383408 168.3464661  24.6657543
  97.6616592 168.3026733  24.0823765  96.7160568 167.7330627  25.4587803
  92.0768051 168.6776428  23.1405678  92.6812286 167.7447357  22.5152512
  90.9125290 168.5227203  23.7734547  90.4982834 169.3179169  24.2383919
  90.0952835 167.2685089  23.9169693  90.2833176 166.5702820  23.1013565
  90.3990479 166.5897064  25.2846088  89.8093262 165.6746063  25.3387012
  91.4536819 166.3152008  25.2622681  90.1757126 167.4917908  26.5460129
  90.2312546 168.5237122  26.1993847  89.1743927 167.3235626  26.9424534
  91.0856400 167.1796570  27.7403164  90.6933670 167.6882172  28.6209984
  91.1084366 166.1060791  27.9273911  92.5559845 167.7594757  27.5651321
  92.9743118 167.3707886  26.6366730  92.4853897 168.8463135  27.5216503
  93.5122070 167.3805542  28.6237411  93.5763931 166.4002075  28.8580265
  94.4247665 167.7354126  28.3759232  93.2834625 167.8053131  29.5110722
  88.6119232 167.5910034  23.9148521  88.1646957 168.6580811  24.2841949
  87.7792587 166.7095032  23.3855705  88.2353516 165.8936157  23.0029335
  86.3017426 166.7234955  23.5014172  86.0311890 167.1426544  24.4705391
  85.7012405 167.6690216  22.4313431  84.6620941 167.7970581  22.7344761
  86.1435928 168.6649933  22.4526329  85.6539154 167.0677948  21.0063496
  86.7783890 167.2102661  20.1894722  87.6440125 167.7215576  20.5840054
  86.7156067 166.8044281  18.8537846  87.5030289 166.9689941  18.1331673
  85.5628281 166.1944427  18.3469200  85.5757904 165.8806763  17.3135872
  84.4393692 166.0591583  19.1267147  83.5508270 165.5924377  18.7278576
  84.4639893 166.5093994  20.4448032  83.5437622 166.5480042  21.0087891
  85.7840652 165.2656555  23.4780540  86.5145340 164.3224640  23.2342224
  84.4811020 165.0900269  23.6846714  83.9680481 165.9229584  23.9358749
  83.7692490 163.8388062  23.6825581  84.4981689 163.0904694  23.3714733
  83.3026352 163.4025269  25.0225658  82.7195969 164.2041779  25.4759083
  82.6868896 162.5107269  24.9056664  84.3422546 163.0794067  26.0417099
  84.9784164 163.9163361  26.8384628  84.9471970 164.9898834  26.7247467
  85.7116928 163.3359528  27.8108540  86.3882904 163.8419342  28.3642883
  85.5737915 161.9669342  27.7080173  86.1349487 160.9302063  28.4814529
  86.7699814 161.1462708  29.3278828  85.9046860 159.5370941  27.9979954
  86.3225403 158.6587524  28.4673653  85.1708069 159.3145905  26.7984505
  85.0028839 158.3124084  26.4326134  84.6349945 160.4223938  26.0858688
  84.1349487 160.1506958  25.1679707  84.8770981 161.7975769  26.4755745
  82.5840225 163.9067993  22.7204437  81.7038116 164.7219391  22.9075623
  82.5806732 163.0195007  21.7357960  83.3379822 162.3548431  21.8051052
  81.6588669 162.8433533  20.6519489  81.0289154 163.7302551  20.5836525
  82.2242889 162.5480347  19.7681007  80.7715836 161.6668549  21.0296383
  80.8922729 160.5453339  20.4970112  79.8225403 161.8771667  21.9827118
  79.7396622 162.8387604  22.2803173  79.0069504 160.7534485  22.4475613
  79.6092682 159.8593597  22.6085453  78.6491318 161.0021210  23.9227238
  77.8922501 161.7856750  23.9586105  78.2751007 160.0915222  24.3907127
  79.7586823 161.5397491  24.8956013  80.1286392 162.4813385  24.4898472
  79.0435410 161.8245850  26.2285080  79.0506363 161.0059967  26.9482059
  79.6672287 162.5752411  26.7139244  78.0075455 162.1444244  26.1165733
  80.9041214 160.5261841  25.0549812  81.5507507 160.4043732  24.1859951
  81.5187836 160.8535156  25.8935184  80.6242218 159.4854736  25.2182465
  77.7082214 160.4025421  21.6030903  77.1511002 161.3426971  21.0470905
  77.2491379 159.1432953  21.5157814  77.7028427 158.3822632  22.0006485
  76.0434875 158.8198242  20.7375355  76.1114349 159.3182983  19.7705784
  76.1625290 157.3209686  20.2997589  75.2343445 156.9472198  19.8674431
  77.1846695 157.1564941  19.1943073  78.1624298 157.5026550  19.5293636
  77.3142548 156.1125336  18.9089355  76.9000320 157.6445770  18.2621861
  76.5859299 156.4971161  21.3288383  76.7833481 155.6089935  21.0224342
  74.7167130 159.1266022  21.4278316  74.2931290 158.4883118  22.3480034
  73.9277191 159.9897156  20.7463779  74.3522949 160.4520111  19.9551010
  72.5993500 160.4732513  21.2453613  72.6895981 160.8878479  22.2493858
  72.1349716 161.7174530  20.5091610  71.3089142 162.1573181  21.0679531
  73.0365219 162.3296814  20.4868469  71.6499786 161.2716980  19.0975895
  72.2999268 161.7723389  18.3799419  71.6420822 160.1958313  18.9227829
  70.2527695 161.7623291  18.7741165  70.1623764 162.7909241  19.1232967
  70.1183929 161.7328186  17.6928310  69.1749268 160.9804382  19.4448433
  68.9061356 161.1196136  20.4084206  68.3578415 160.1901093  18.7262764
  68.5192642 159.7262115  17.5385876  69.0921555 160.1685944  16.8341770
  67.6971054 159.2513428  17.1941357  67.2144623 159.8560486  19.2630939
  66.9275208 160.4385376  20.0366936  66.6260147 159.2668152  18.6915722
  71.4902954 159.4027557  21.2943840  70.4224014 159.6688232  21.7828979
  71.8017120 158.1619720  20.7856750  72.7441406 158.1520538  20.4226017
  70.9824753 156.9621582  20.6749039  69.9661560 157.2234650  20.3800831
  71.5306702 156.0294037  19.5996933  71.1328049 155.0163574  19.5402718
  71.2363892 156.4231415  18.6268215  72.9405594 155.9382935  19.7215195
  73.2741699 155.5152893  18.9269371  71.0320282 156.1567993  21.9804916
  69.9982147 155.7250977  22.4423637  72.2330627 155.9093628  22.5231361
  73.0528641 156.1423645  21.9811554  72.4915695 155.2918549  23.8396187
  71.7473145 154.5052795  23.9639988  73.9491043 154.7566376  23.8368378
  74.6808853 155.5343933  23.6184711  74.1677322 154.1444397  24.7117748
  74.0829544 154.1276703  22.9567356  72.3043671 156.3049774  25.0610142
  72.4570999 155.8502502  26.1521759  71.9634018 157.5875092  24.7912807
  71.6834488 157.8590240  23.8596153  71.8513947 158.5382233  25.8853283
  72.3639450 158.1814117  26.7786827  72.4722824 160.0028992  25.5095730
  71.9394760 160.3420410  24.6212044  72.1292572 160.7272644  26.2483177
  74.0020599 160.1892548  25.3886147  74.4349594 159.4329529  24.7338543
  74.3885193 161.4891663  24.6305695  73.8841858 162.3469391  25.0755119
  75.4548492 161.7113037  24.6718521  74.1476135 161.3017578  23.5841751
  74.7934189 160.2447510  26.6308918  74.4405823 159.4030762  27.2268734
  75.8191528 160.1303711  26.2803326  74.7360153 161.1447449  27.2431087
  70.3472824 158.7495117  26.3797855  69.4408569 158.8362579  25.5297852
  70.1443863 158.7751465  27.7333374  70.9773483 158.7101898  28.3008385
  68.8191376 158.8866730  28.3706741  68.0408401 159.1331177  27.6484432
  68.3182068 157.5878143  29.0998478  68.2586517 156.7545166  28.3997231
  69.1629486 157.3605957  29.7501488  67.0052567 157.7293701  29.8837185
  67.0912628 158.3468475  30.7778244  65.8132401 157.9938812  28.9351521
  65.9038391 157.3320618  28.0738277  64.8514938 157.7872925  29.4046955
  65.7979202 159.0299072  28.5967464  66.6829758 156.3598785  30.5320263
  67.3996429 156.1322937  31.3211403  65.7018967 156.4329987  31.0013161
  66.5385666 155.5438385  29.8239918  68.8301163 160.1955566  29.2869987
  69.4258423 160.2766418  30.3728313  68.1051331 161.2110748  28.8821640
  67.5434570 161.3798828  27.5527916  66.4944839 161.0875549  27.5048161
  68.1351929 160.8446503  26.8101673  67.7687607 162.8579407  27.2578011
  67.1116104 163.1718597  26.4468060  68.7840729 163.1283569  26.9677601
  67.2857666 163.4168243  28.6147633  66.1993561 163.3812103  28.5338593
  67.6635971 164.4185333  28.8195305  67.8208923 162.4721985  29.6432076
  68.7222900 162.9693451  30.0015526  66.9563370 162.4059753  30.9070358
  66.0947647 163.3032379  31.1034241  67.2728653 161.4705963  31.7881145
  68.0650101 160.8782501  31.5838051  66.7893829 161.2930603  33.1612091
  65.7106934 161.4486542  33.1792603  67.2609329 159.9061737  33.6266937
  66.8546066 159.1569672  32.9472084  68.3482666 159.8876038  33.7005577
  66.6269989 159.6245117  35.0316162  67.0443497 160.3568573  35.7226982
  65.5701904 159.8671112  34.9201736  66.8919907 158.3247070  35.6687469
  67.9228592 158.0120697  35.5024147  66.7117386 158.3917694  36.7416458
  65.9887848 157.2463837  35.1199722  65.8060303 157.4140320  34.1408920
  65.7278290 156.1529846  35.7245865  66.1675644 155.8443451  36.8594360
  66.7969589 156.4371643  37.3814888  65.7641754 155.1118469  37.4258499
  65.0391083 155.2415924  35.0941467  64.4147415 155.4983063  34.3429108
  64.6964264 154.4346619  35.5956841  67.2980652 162.3871765  34.0705185
  66.4979553 162.9193268  34.8330231  68.5213928 162.7132416  33.9840126
  86.9908447 155.1349030   2.2869623  87.5847321 155.9725494   2.8998170
  87.1162109 157.3056183   2.8553133  88.7849731 155.5184631   3.7133985
  87.6852493 158.2479401   3.5668893  89.6243057 156.1197662   4.5532441
  89.3756866 154.3358765   3.7545896  88.6757660 158.5379639   4.4861574
  89.6276779 157.4263611   4.8639536  90.3513412 155.0448608   4.7866349
  90.6569595 153.9196167   4.0075932  89.0916672 159.7590179   5.1449838
  90.6296616 157.9180756   5.7639117  90.0262680 160.1197662   6.0809283
  90.9774704 159.1248322   6.3346038  86.1947708 157.4277954   2.4520991
  90.1288300 161.3385773   6.6608624  91.3758469 162.1239014   6.7999511
  89.4120178 161.7313232   7.7297926  92.3250351 162.0524902   6.0561695
  91.5629883 162.9009247   8.0853424  89.5092545 162.3474731   8.7591152
  90.7101440 162.9984131   9.2546072  91.0381775 163.4816742  10.3370857
  92.4969330 163.2779999   8.1955070  92.1425858 159.2793732   7.0575314
  93.2056503 158.5286713   6.9583097  89.8622742 153.5326996   5.0755558
  89.4724731 152.7750549   6.2349916  90.0627060 151.4962769   6.6265049
  88.5847015 153.3451538   7.2341056  89.9414749 151.0951843   7.7826467
  88.5504456 152.7299194   8.3214893  89.0477448 151.6317902   8.4767036
