Cpptraj Generated Restart                                                       
   34  4.0000001E-01
  86.9908447 155.1349030   2.2869623  87.5847321 155.9725494   2.8998170
  87.1162109 157.3056183   2.8553133  88.7849731 155.5184631   3.7133985
  87.6852493 158.2479401   3.5668893  89.6243057 156.1197662   4.5532441
  89.3756866 154.3358765   3.7545896  88.6757660 158.5379639   4.4861574
  89.6276779 157.4263611   4.8639536  90.3513412 155.0448608   4.7866349
  90.6569595 153.9196167   4.0075932  89.0916672 159.7590179   5.1449838
  90.6296616 157.9180756   5.7639117  90.0262680 160.1197662   6.0809283
  90.9774704 159.1248322   6.3346038  86.1947708 157.4277954   2.4520991
  90.1288300 161.3385773   6.6608624  91.3758469 162.1239014   6.7999511
  89.4120178 161.7313232   7.7297926  92.3250351 162.0524902   6.0561695
  91.5629883 162.9009247   8.0853424  89.5092545 162.3474731   8.7591152
  90.7101440 162.9984131   9.2546072  91.0381775 163.4816742  10.3370857
  92.4969330 163.2779999   8.1955070  92.1425858 159.2793732   7.0575314
  93.2056503 158.5286713   6.9583097  89.8622742 153.5326996   5.0755558
  89.4724731 152.7750549   6.2349916  90.0627060 151.4962769   6.6265049
  88.5847015 153.3451538   7.2341056  89.9414749 151.0951843   7.7826467
  88.5504456 152.7299194   8.3214893  89.0477448 151.6317902   8.4767036
