Cpptraj Generated Restart                                                       
 6221  4.0000001E-01
  90.6790695 180.0503693  24.0881557  91.5554810 180.3272705  23.6694298
  90.8187714 179.0926666  24.3769073  90.5476456 180.4990997  24.9834061
  89.5423889 180.2825165  23.1216545  88.6236801 180.0497437  23.6600742
  89.3221817 181.7752991  22.6535816  90.0726624 181.9665833  21.8865814
  88.3240814 181.8699951  22.2258720  89.3670044 182.8555603  23.7897110
  88.4974670 182.7040558  24.4292793  90.2253952 182.6710205  24.4356346
  89.4996719 184.6237183  23.4517670  87.8392181 185.1022186  23.1313953
  87.5307922 185.4933319  24.1009331  87.7052460 185.9798431  22.4990082
  87.2342682 184.3272095  22.6607494  89.4902649 179.2052002  22.0408936
  90.4847107 178.7060089  21.5697517  88.3125687 178.7632294  21.6943417
  87.5594788 179.0584259  22.2991695  88.1417313 177.7191467  20.6371861
  88.7487793 176.9012604  21.0253372  86.6889648 177.2658997  20.4780064
  86.1306534 178.1535034  20.1804523  86.5575485 176.1901245  19.3816490
  87.1330643 175.3000641  19.6359291  85.5153122 175.8915710  19.2689304
  86.8294449 176.5770721  18.3995857  86.1653214 176.6253967  21.7995739
  85.6453400 175.6702271  21.7263260  87.0013504 176.5313873  22.4926357
  85.0770645 177.4972229  22.4363270  84.0763245 177.2898254  22.0573711
  85.1338196 177.2308350  23.4917488  85.2632217 178.5608978  22.2878494
  88.7309647 178.2691498  19.2824059  88.5138245 179.3963928  18.9463081
  89.5001373 177.4637604  18.5696201  89.6946564 176.5514832  18.9569263
  90.1260910 177.7897949  17.2460690  89.6758118 178.6441956  16.7407494
  91.5481491 178.2589417  17.4744797  91.9084244 178.6479187  16.5221176
  91.6087723 179.1218872  18.1376057  92.5832672 177.1903076  17.9635620
  92.3830948 176.0227203  17.7139244  93.6337738 177.5445251  18.6739254
  94.4135590 176.9027710  18.6878815  93.8267059 178.5160522  18.8714466
  89.9440079 176.6838837  16.2100964  90.2395325 177.0095367  15.0237560
  89.3679886 175.5453339  16.5234795  89.3290482 175.2509155  17.4888287
  88.7699127 174.7526093  15.4453278  89.5304871 174.3842316  14.7569094
  88.0568848 173.5287628  16.0184841  88.7407913 172.9545135  16.6434593
  87.2032089 173.8916626  16.5908928  87.5430832 172.5270233  15.0487080
  88.3817596 171.6344604  14.3694534  89.4586105 171.6763153  14.4404993
  87.9022980 170.6886444  13.4353542  88.5635529 169.9414368  13.0220375
  86.5084305 170.5725708  13.2646847  85.9657974 169.8294220  12.6992903
  85.6720276 171.4693298  13.9504051  84.6078262 171.3701630  13.7953453
  86.1396255 172.4667816  14.7987747  85.5266113 173.1627350  15.3521757
  87.7081909 175.5704346  14.6150208  86.8584900 176.2751465  15.1150637
  87.8461914 175.4723663  13.3009539  88.6510239 174.9637451  12.9638128
  86.9645004 176.1016693  12.3119364  86.6741104 177.1012878  12.6352673
  87.7180634 176.1895905  11.0587568  88.6513290 176.7425842  11.1651106
  88.0609970 175.1872101  10.8023577  87.0194092 176.7624512   9.8250408
  86.1037292 177.6135864  10.0051928  87.5270081 176.4787445   8.7045374
  85.6722412 175.3193817  12.1087513  85.6449814 174.2375946  11.5745955
  84.6349640 175.8715057  12.7423477  84.8006210 176.7319336  13.2446737
  83.3278503 175.1945953  12.8827314  83.4216995 174.3234558  13.5311346
  82.2364426 176.0704041  13.5047865  81.2402954 175.6378632  13.4115114
  82.4843445 176.3315277  15.0130177  83.3870544 176.9159698  15.1908655
  81.6640244 176.9642334  15.3519392  82.5418701 175.4017792  15.5790224
  82.1457214 177.3582306  12.9051247  82.6534729 178.0778503  13.2871208
  82.6941833 174.7549591  11.5385761  81.8930359 173.8329773  11.5438776
  83.0736771 175.2857819  10.3457413  83.6577530 176.1067505  10.2752333
  82.6461716 174.7105560   9.0627613  81.5755615 174.5377960   9.1725149
  82.8806458 175.6614990   7.9565954  82.5898361 175.2114716   7.0073819
  82.3857574 176.6169128   8.1308060  84.2580185 175.9239197   7.8408165
  84.3909607 176.5650024   7.1387191  83.2870712 173.3252869   8.7097273
  82.7215118 172.6021118   7.8951159  84.3646622 172.9126740   9.3755732
  84.7955856 173.5834808   9.9955921  85.1259079 171.5995178   9.0503540
  85.3145218 171.6264648   7.9771347  86.4236374 171.6278229   9.7783136
  86.3152390 171.8826599  10.8325443  86.9224243 170.6598206   9.7304859
  87.4007797 172.6763000   9.2076902  87.0529327 173.6734467   9.4775267
  88.7192612 172.4575043  10.0519018  88.8746262 171.3803558   9.9911146
  89.4976578 173.0534668   9.5754328  88.5864716 172.8381653  11.0646086
  87.6240768 172.5970764   7.7051249  86.7150650 172.7378235   7.1203279
  88.3023300 173.3535614   7.3104296  87.9801254 171.5764618   7.5648222
  84.4410019 170.1984100   9.2273169  84.8011780 169.2437286   8.5307493
  83.4574051 170.0792236  10.1836557  83.3227539 170.8414001  11.4053698
  82.5548325 171.6040497  11.2759151  84.2477112 171.3769226  11.6192884
  82.9083328 169.8008728  12.4355211  82.3737335 170.2192841  13.2883015
  83.7950211 169.2218628  12.6936350  81.9260254 168.8841705  11.6026478
  80.9844360 169.4275208  11.5234480  81.9169922 167.8912659  12.0522757
  82.5495834 168.9249268  10.1943159  83.2504807 168.0922699  10.1349354
  81.4508820 168.8660583   9.1210814  81.0856552 167.7754974   8.7946978
  80.9358749 170.0257721   8.6750774  81.3142166 170.9046326   8.9984226
  79.7574539 170.2438660   7.8674259  79.1187286 169.4233856   8.1944504
  78.9130936 171.5514984   8.0027494  78.1847916 171.6095734   7.1938610
  78.1517105 171.5591125   9.2989092  78.7512360 171.6283875  10.2065840
  77.3641129 172.3118896   9.2656717  77.5580444 170.6482544   9.3764362
  79.6499252 172.7441406   8.0716009  80.0313034 172.9585114   7.2170844
  80.0359268 170.1443939   6.3796411  79.1322556 169.8813934   5.6234612
  81.3136292 170.2667694   6.0271044  81.9554672 170.6622467   6.6992207
  81.7915497 169.9116364   4.6711593  81.1042252 170.3850098   3.9700220
  83.1194382 170.6644745   4.5269442  83.4709549 170.4875793   3.5104554
  82.9472198 171.7377777   4.6074171  84.0767136 170.2512817   5.4383154
  84.6954346 170.9634247   5.6161485  81.9472275 168.3979034   4.4344492
  81.7513046 167.9132233   3.2819221  82.0392303 167.5673218   5.5542164
  82.0015182 168.0157471   6.4584250  82.2131577 166.0546112   5.5367084
  82.4183350 165.8524780   6.5879669  80.8681870 165.3642731   5.2134795
  80.5971680 165.5674286   4.1774421  81.1104584 164.3060760   5.3116884
  79.7513809 165.7766876   6.1772208  79.3328857 164.9191589   7.1642442
  78.2566833 165.5363464   7.6867752  77.6568756 165.1027679   8.4733143
  77.8997955 166.6403961   7.0193338  77.0075073 167.1027832   7.1199193
  78.9308548 166.8626251   6.1089630  78.9423370 167.5537567   5.2791429
  83.3759842 165.5343475   4.6921306  83.2963867 164.5031128   4.0424924
  84.5138321 166.2109985   4.7830210  84.4986343 166.9889374   5.4269810
  85.8085175 165.8927307   4.1248255  85.7093201 166.0819092   3.0559607
  86.8783188 166.8162079   4.7541809  86.7769547 166.7524109   5.8375821
  87.8420944 166.4373322   4.4140525  86.7928162 168.3209839   4.3513179
  87.2308044 168.3034515   3.3533382  85.7206573 168.5049896   4.2826734
  87.5459671 169.5503693   5.4777970  89.2857742 169.1599884   5.3627625
  89.5361938 169.1003265   4.3035998  89.8615341 169.9522858   5.8411660
  89.5283127 168.1961365   5.8102527  86.2102814 164.3981628   4.3016596
  86.7365036 163.8379364   3.3338315  85.9811325 163.8102722   5.4784365
  85.6147766 164.4109039   6.2030959  86.3688889 162.4122925   5.7994819
  87.4424438 162.2407074   5.7211418  85.9200821 162.1559143   7.2599058
  86.4670944 161.2870789   7.6259332  86.3097000 162.9886322   7.8454776
  84.4069519 162.0150452   7.4293571  83.5880585 163.2130280   7.6129622
  83.9925613 164.2039185   7.7576065  82.2083664 162.9966736   7.7487922
  81.6229248 163.8558350   8.0411940  81.5597305 161.7107849   7.6108122
  80.2146301 161.6020660   7.7712851  79.7613907 162.4386139   7.6433892
  82.4159164 160.6234589   7.4588294  82.0156326 159.6291656   7.3263373
  83.8141556 160.7340240   7.3099918  84.4046860 159.8406372   7.1702003
  85.6672211 161.3787079   4.8810754  86.2956390 160.3337097   4.6369781
  84.4540176 161.6237335   4.3219447  83.9728546 162.4684448   4.5958991
  83.7007217 160.7046356   3.4691472  83.7724609 159.6982880   3.8817322
  82.2428970 161.2521820   3.4010577  81.9195786 161.4078064   4.4303041
  82.3890686 162.2176361   2.9166672  81.1548996 160.5316315   2.5013599
  81.5220413 160.3041992   1.5005668  80.4974442 159.2375336   3.1474209
  80.0252838 159.5078430   4.0919290  79.7546005 158.7570801   2.5106647
  81.3092651 158.5394287   3.3516133  80.0323868 161.5113678   2.2026026
  80.4512253 162.3535614   1.6517885  79.2405548 161.0994720   1.5769466
  79.6023102 161.9173431   3.1182024  84.3460770 160.6388702   2.0809197
  84.5281296 159.5832977   1.5152534  84.8375092 161.7709351   1.6258434
  84.7846832 162.5734406   2.2368143  85.5327377 161.9207153   0.2894043
  86.5470428 161.5216980   0.2971868  84.9559479 161.3607483  -0.4467022
  85.5677795 163.4175568  -0.1837993  84.6480865 164.2106781   0.0962891
  86.6365356 163.8613281  -0.8738694  87.4044266 163.2208710  -1.0161912
  86.5264053 165.1420746  -1.7043012  85.8066101 165.8184052  -1.2432605
  87.9183121 165.7819824  -1.6831548  87.7568741 166.8343506  -1.9167117
  88.3862457 165.7080231  -0.7014890  88.7421494 165.1009064  -2.5771213
  89.5743179 165.5778503  -2.6174517  86.0976562 164.9734039  -3.2149396
  85.9637222 163.8581238  -3.7201154  85.9282303 166.0120087  -4.0127344
  86.1112900 166.8963318  -3.5604618  85.6431732 165.9295044  -5.4598374
  85.2588501 166.9230652  -5.6905870  86.9938736 165.5854950  -6.2867732
  87.7674789 166.2972565  -5.9986019  87.3869400 164.6371918  -5.9202819
  86.8656769 165.5035706  -7.8754249  86.0668411 166.2653198  -8.5394735
  87.7058868 164.7422638  -8.4458151  84.4032059 165.0370331  -5.8851271
  84.4613571 164.1331482  -6.7006178  83.2900314 165.2852173  -5.2157350
  83.3829193 165.9861450  -4.4945140  81.9519424 164.7914276  -5.5765800
  82.0144424 163.7240295  -5.7883363  80.9580841 164.8982391  -4.4015989
  80.7264633 165.9436798  -4.1978645  80.0560074 164.3330841  -4.6360345
  81.5837173 164.2976227  -3.1082463  82.3241425 163.5435638  -3.3752022
  82.1027145 165.1193237  -2.6147432  80.4426651 163.6978912  -1.8604300
  79.7217407 162.2240295  -2.5134823  80.4182816 161.4182892  -2.2817538
  78.8065491 161.9688110  -1.9792697  79.4068604 162.2271576  -3.5570056
  81.3390427 165.4725494  -6.8377752  81.5540085 166.6439667  -7.2008829
  80.3736343 164.8108063  -7.4744239  80.1978073 163.8507843  -7.2145767
  79.3498154 165.4220886  -8.2968531  79.8085098 166.1817474  -8.9297905
  78.7750626 164.3334503  -9.2665577  79.5716629 163.8772888  -9.8543139
  78.2593613 163.5320435  -8.7375040  77.6916656 164.8814240 -10.2357893
  76.7499313 165.2144928  -9.7995443  78.1333084 165.8015442 -10.6184549
  77.4008484 163.8593903 -11.3577547  77.3405151 162.6288757 -11.0178785
  77.2310333 164.3006439 -12.5533524  78.2781067 166.1574554  -7.5128818
  77.4023819 165.4988861  -6.9209313  78.2143555 167.4960022  -7.6975660
  78.8076782 167.9442902  -8.3810186  77.1286163 168.2829590  -7.1003952
  76.7784882 167.7777710  -6.2002277  77.6559601 169.6708221  -6.7028012
  78.2374878 170.1935577  -7.4621892  76.7816391 170.2870026  -6.4930420
  78.4418945 169.6359100  -5.3972721  77.9021606 169.0419159  -4.6597362
  79.4051743 169.1580811  -5.5757742  78.7170181 171.0709229  -4.8259878
  77.8805847 172.0519867  -4.8755488  79.8275452 171.2573853  -4.2809229
  75.9379501 168.4532013  -8.0846815  76.1640015 168.7446289  -9.2567167
  74.6972885 168.4843597  -7.4959793  74.6956863 168.4174347  -6.4882002
  73.4628677 168.9756622  -8.1428347  73.6589127 169.1919708  -9.1930170
  72.3824081 167.8853607  -7.9691463  72.3606644 167.7804718  -6.8844213
  71.4124908 168.3030396  -8.2391615  72.6599121 166.5402069  -8.5963449
  72.0585709 166.2168427  -9.8484144  71.3851318 166.9034424 -10.3398094
  72.2214813 164.9226685 -10.3743544  71.7188034 164.6312561 -11.2847366
  73.0948792 164.0529480  -9.6997442  73.2891769 163.0596619 -10.0766020
  73.6476822 164.3885651  -8.4512510  74.2035904 163.6538544  -7.8877091
  73.5288620 165.6692810  -7.9606414  73.9511185 165.9529877  -7.0079522
  72.9162140 170.3311157  -7.6646018  72.9246216 170.6708221  -6.5030608
  72.4623489 171.1529846  -8.6229315  72.4320755 170.8171387  -9.5749817
  71.9229736 172.4880066  -8.3680048  72.1598053 172.8282471  -7.3599057
  72.5928497 173.4965515  -9.3382998  72.3318939 174.5222931  -9.0778265
  73.6586075 173.5183105  -9.1107264  72.3809357 173.2632141 -10.8239222
  73.1871490 172.5603027 -11.6808672  72.6522903 172.6829071 -12.9083071
  72.9973602 172.1402740 -13.7759933  71.4582596 173.3557587 -12.7781439
  70.7955933 173.4739227 -13.5311451  71.3301010 173.8332062 -11.4819565
  70.5127640 174.3678589 -11.0209665  70.3587494 172.6050415  -8.4034443
  69.7892761 173.5310822  -7.7925019  69.6226578 171.7252808  -9.0933771
  70.0650635 170.9241028  -9.5205698  68.1437454 171.7377930  -9.0009441
  67.7510757 172.7297821  -9.2242832  67.7439041 171.1798401  -9.8476515
  67.6306229 171.2327423  -7.6340837  68.2086029 170.3276062  -7.0246344
  66.5747452 171.8476257  -7.1236887  66.1268082 172.5587463  -7.6838336
  65.8044281 171.5332336  -5.9318819  66.3836899 170.8081207  -5.3602414
  65.5573273 172.8678894  -5.1576996  64.9538803 173.5334015  -5.7749915
  65.0469818 172.6545715  -4.2184691  66.8464966 173.5959625  -4.6967225
  67.5490036 173.6071777  -5.5300584  66.6061401 174.6259613  -4.4332004
  67.5329285 172.8462219  -3.5429432  66.8467484 172.6434631  -2.7206626
  67.8016891 171.9303436  -4.0692935  68.7568283 173.6044464  -3.0807664
  69.6063766 173.2671661  -3.5104113  68.8442764 174.6598969  -2.2432179
  67.8591156 175.3820953  -1.8361086  66.9233093 175.1257935  -2.1166091
  68.0815582 176.2909088  -1.4557352  69.9682541 175.0826263  -1.9425284
  70.7659073 174.5445557  -2.2496331  70.1254425 175.7483215  -1.1993983
  64.5130615 170.8092041  -6.2816672  63.7675858 171.2927856  -7.1091900
  64.3035965 169.7026062  -5.5912118  65.0109329 169.2402496  -5.0380445
  63.0161629 168.9288330  -5.7334824  62.6318359 169.1244049  -6.7345529
  63.3145943 167.3591461  -5.5898499  63.8827934 167.1402893  -4.6857762
  62.0507965 166.5558929  -5.7479448  61.6566734 166.7742004  -6.7404737
  62.2511330 165.4926910  -5.6153588  61.3444595 166.6528320  -4.9234509
  64.2039032 166.9984283  -6.6063929  64.2183533 166.0473480  -6.7361612
  62.0026779 169.3650970  -4.6524005  62.2529221 169.1910553  -3.4684687
  60.7961655 169.8595428  -5.0322785  60.7499084 170.0771942  -6.0174623
  59.6552887 170.0762634  -4.1924405  59.8325768 169.5856934  -3.2353523
  59.5218964 171.5559692  -3.8921475  59.4712105 172.0648041  -4.8547616
  58.5339088 171.7382202  -3.4693437  60.4968834 172.0972290  -2.9172912
  61.4560890 171.6347351  -3.1499557  60.5787964 173.6025543  -2.9674201
  59.6078224 174.0783386  -2.8298213  61.3451004 173.9329376  -2.2661874
  60.8346138 173.8998871  -3.9844000  60.1267776 171.6696014  -1.4491398
  59.7621803 170.6428375  -1.4793152  61.0681801 171.6950836  -0.9003122
  59.4987907 172.4273224  -0.9805169  58.3312874 169.5829620  -4.8462901
  58.0420914 170.0715485  -5.9320750  57.6075058 168.6708832  -4.1579785
  58.0001183 168.3381500  -3.2889276  56.1883469 168.2042847  -4.4155397
  56.0781288 168.2166290  -5.4998822  55.9826012 166.7404480  -3.9577034
  55.9624405 166.6022034  -2.8766949  55.0231819 166.4736023  -4.4008756
  57.0029526 165.7316284  -4.4113865  58.1411324 165.4042053  -3.7635312
  58.7799530 164.4684906  -4.4872861  59.7012901 163.9780426  -4.2097692
  58.0696182 164.1900787  -5.5692830  58.3031731 163.4190979  -6.1785049
  56.9218597 164.9296417  -5.5164990  56.1005478 164.9707642  -6.2166066
  55.1702538 169.1640320  -3.7650216  55.5623016 169.9193573  -2.8722875
  53.9497719 169.2071991  -4.3342452  53.7390747 168.5895996  -5.1051469
  52.8709106 170.0943146  -3.8601594  53.2650871 171.1076508  -3.7836003
  51.7653885 169.9886932  -4.9235473  51.3883896 168.9664154  -4.9538932
  50.9407082 170.6109314  -4.5759392  52.2016220 170.5713196  -6.2834101
  52.8052330 171.6991577  -6.3911695  51.8268242 169.9528351  -7.3207898
  52.3135643 169.7185974  -2.4592562  52.2318459 168.5378571  -2.1047239
  51.8118553 170.7451019  -1.6870469  51.7209282 171.6176910  -2.1874852
  51.3752022 170.4547729  -0.3253646  52.2262955 169.9891663   0.1715778
  51.0914383 171.6910858   0.4098561  50.2359543 172.1541443  -0.0819051
  50.6622047 171.4853058   1.3904216  52.3831062 172.5695801   0.4645901
  53.4794350 171.9968109   0.5888203  52.2610512 173.7792969   0.3954839
  50.1549721 169.5074158  -0.2502031  49.2282295 169.4793396  -1.0370017
  50.2258530 168.6050873   0.7605767  51.0557327 168.5789795   1.3356593
  49.3629189 167.4279022   1.0358597  49.8423653 166.7991180   1.7861077
  47.9683838 167.8596497   1.6306478  47.5990334 168.6914062   1.0307651
  47.2669792 167.0405731   1.4717696  48.0666962 168.1840820   3.0869710
  48.6484337 167.3863220   3.8479247  47.4722595 169.2288208   3.5382824
  49.1383896 166.4699249  -0.1602600  48.3451996 165.5317993  -0.0837014
  49.7788506 166.6601257  -1.3136685  50.2170105 167.5471954  -1.5167097
  49.7526932 165.6428986  -2.3698113  48.7280960 165.5941315  -2.7384884
  50.5872688 166.1242523  -3.5430515  50.3721161 165.5057983  -4.4144425
  50.3252144 167.1569672  -3.7731187  52.0030022 166.0626526  -3.3252809
  52.1653786 166.7945251  -2.7256033  50.2462387 164.2189178  -1.9228909
  51.1507874 164.1748047  -1.0312037  49.5600548 163.1757812  -2.4079702
  48.7250099 163.3726501  -2.9409337  49.8052788 161.7515259  -2.1801772
  50.2268867 161.6049652  -1.1857613  48.5285034 160.8481140  -2.2088468
  47.8814468 161.1906128  -1.4013076  47.9585762 160.8497162  -3.1379776
  48.9481430 159.1046448  -1.9440042  47.9010963 158.5322876  -2.5448480
  50.8371010 161.3491211  -3.2832940  50.7261772 161.7644348  -4.4371614
  51.9368591 160.6448059  -2.8790853  51.8423500 160.3619537  -1.9141165
  53.1824341 160.4109497  -3.5813429  53.0206108 160.4416962  -4.6588254
  54.2168541 161.4676819  -3.2258134  54.2802696 161.4414978  -2.1379750
  55.1733475 161.1210327  -3.6170459  53.9205627 162.9097900  -3.5560102
  53.0576668 163.2684479  -2.9948666  54.7516975 163.5756226  -3.3236341
  53.6257172 163.0991211  -5.0378428  54.1160507 162.3702393  -5.8870902
  52.9283218 164.1377258  -5.4762130  52.8153534 164.3128357  -6.4644842
  52.6475601 164.8732452  -4.8435335  53.8207970 159.0067139  -3.2542481
  53.6931992 158.5935211  -2.1200140  54.4889984 158.2969055  -4.1999679
  54.6334648 158.6480560  -5.1358800  55.3079262 157.1212616  -3.8613622
  54.9889870 156.9017792  -2.8424385  54.8416824 155.8852539  -4.7184319
  53.7727966 156.0974731  -4.7418532  55.1619682 155.8261414  -6.2520218
  56.2369957 155.7309723  -6.4048939  54.6501923 154.9869537  -6.7231321
  54.8435440 156.7936249  -6.6402330  55.2752228 154.5303802  -4.0633659
  54.7944260 154.3622131  -3.0996983  54.9026260 153.7078094  -4.6738167
  56.3579178 154.4232788  -3.9970355  56.7890358 157.4031677  -3.9078746
  57.2805977 157.8848724  -4.9341502  57.5534935 157.0661316  -2.8684056
  57.1472664 156.5455475  -2.1041613  59.0171280 157.3393250  -2.6791084
  59.3934822 157.5020294  -3.6890523  59.1853790 158.6868896  -1.8703672
  58.8895187 158.5459442  -0.8307991  60.6261215 159.1745300  -1.8219843
  60.9356422 159.6735382  -2.7402859  60.6992836 159.8983459  -1.0103021
  61.3300934 158.3663177  -1.6236591  58.2728539 159.8523865  -2.4100451
  58.5430145 160.0097351  -3.4542458  57.2366982 159.5634308  -2.2340159
  58.3663216 161.2397156  -1.7796549  59.3263969 161.7135162  -1.9842672
  57.6399307 161.9308014  -2.2072818  58.1647224 161.2287292  -0.7085161
  59.8620262 156.2232819  -2.0992534  59.4637299 155.6477203  -1.0796922
  61.0149651 155.8331604  -2.7588427  61.6684570 156.4448853  -3.9167449
  61.8928146 157.5016327  -3.7716458  60.9917679 156.4446869  -4.7712560
  62.8946533 155.6004486  -4.2059832  63.7730789 156.0851440  -3.7799156
  63.0279961 155.5086975  -5.2838984  62.7094803 154.2912903  -3.4600139
  63.6760674 153.9254150  -3.1136928  62.3298073 153.5094604  -4.1178169
  61.7578354 154.6193848  -2.3129747  60.9870987 153.8504944  -2.2594945
  62.5113411 154.9551697  -1.0270073  62.8229561 156.1174316  -0.7275772
  62.8715019 153.9309845  -0.2759348  62.7335930 153.0010376  -0.6450880
  63.5105095 154.0809479   1.0560033  63.8575516 155.0924225   1.2671137
  62.5635910 153.5560455   2.2020903  62.3381958 152.4979553   2.0688355
  63.2255402 153.5351105   3.5891421  63.6597672 154.5003052   3.8498392
  62.4366722 153.3185425   4.3094807  63.9856071 152.7538605   3.5833914
  61.1706619 154.2552032   2.2456298  60.6797485 154.1041718   1.2842268
  60.6121826 153.7212830   3.0144811  61.2674904 155.3141479   2.4851489
  64.7970963 153.2503357   1.0617454  64.6526260 152.0637512   0.8918242
  65.9995575 153.8271484   1.4629010  66.1254196 154.8175354   1.6158351
  67.1234589 152.9153137   1.7617047  67.1868134 152.2456055   0.9040527
  68.4744186 153.6494751   1.8870037  68.2915268 154.4662933   2.5851886
  69.2117386 152.9714813   2.3168440  69.1092300 154.2935028   0.6231051
  68.3810349 154.8974915   0.0817821  70.2302933 155.2828522   0.9799371
  71.0425568 154.6939545   1.4060081  70.6342850 155.7893372   0.1033677
  69.8923264 156.0020447   1.7260286  69.8494263 153.2355042  -0.2192507
  69.1017990 152.5026398  -0.5226573  70.3568192 153.7160950  -1.0557213
  70.5803680 152.6261749   0.3122990  66.8930664 152.0867157   3.0970147
  66.6859360 152.7034607   4.1354938  66.8061142 150.7561646   3.0385697
  66.8984222 149.9226227   1.8703361  67.8474045 150.1393890   1.3798907
  66.0461960 150.1929779   1.2468610  66.8345337 148.4757080   2.3859754
  67.7995300 148.0259094   2.6195405  66.3101883 147.7989044   1.7113758
  65.9476089 148.6121826   3.6784809  66.1746597 147.8571930   4.4311719
  64.9240417 148.5402222   3.3107424  66.2917480 150.0006866   4.1576343
  65.3211594 150.3887787   4.4665856  67.2417374 149.9010620   5.3789067
  66.7379150 149.7445221   6.4626751  68.6008224 149.9279022   5.2264295
  68.9777679 150.0773773   4.3014030  69.5649338 149.9615173   6.3539596
  69.1088638 149.3080292   7.0976448  70.8876419 149.2797852   5.8390360
  71.3183517 149.8380127   5.0077891  71.6735153 149.3197937   6.5932894
  70.7157898 147.8811340   5.3944774  70.1759949 147.4230499   4.1825972
  70.1604080 146.0647583   4.2596760  69.7644043 145.4272156   3.4830563
  70.5429306 145.7215424   5.5244074  70.7166824 144.7733459   5.8257980
  70.9317474 146.8367767   6.2134676  71.4275742 146.9105072   7.1700869
  69.7226028 151.3050537   7.1159983  70.3929596 151.3523254   8.1514597
  69.1280746 152.3726654   6.5738878  68.7056808 152.2745361   5.6617203
  69.1453552 153.7599640   7.1252780  70.1304398 154.0140228   7.5166473
  68.8332520 154.8122406   5.9984679  67.8383789 154.6215515   5.5960207
  68.7087555 156.1954193   6.6014390  69.6225967 156.3948975   7.1610918
  68.6642380 156.9928741   5.8596807  67.8456879 156.2373352   7.2658706
  69.9083557 154.7785645   4.9071455  69.9921112 153.7810211   4.4758840
  69.6602249 155.4722290   4.1037917  70.8359222 154.9572754   5.4510069
  68.0684738 153.8278656   8.2831326  66.8753128 153.9057465   7.9738355
  68.5150681 153.9883881   9.5023346  69.5073547 153.8400421   9.6183777
  67.6603241 153.8339996  10.6535101  66.6653366 153.4809265  10.3824854
  68.1762772 152.6461029  11.5879364  69.2580109 152.7790222  11.6048326
  67.6856537 152.5883942  12.5595627  67.8418884 151.3466492  10.8993292
  66.7652664 151.3372192  10.7293348  68.2041016 151.3438568   9.8712692
  68.2135239 149.7986908  11.8022680  69.3015976 148.9221954  10.6131229
  70.1857300 149.5458069  10.4807310  69.4906616 147.9116821  10.9753447
  68.8797379 148.8225861   9.6130161  67.3574982 155.0761261  11.4847908
  66.4196777 155.0801544  12.2741985  68.1267700 156.1595612  11.3509207
  68.8557053 156.1503906  10.6518717  67.9827042 157.3602905  12.1370821
  67.8637619 157.0146637  13.1639652  69.2199402 158.2714539  12.1205778
  68.8670044 159.1132507  12.7163191  70.4580765 157.6105499  12.8310242
  70.8243027 156.7375183  12.2908506  71.3032455 158.2826691  12.9795237
  70.2003937 157.1934662  13.8045416  69.6561508 158.7798157  10.6995716
  68.7745132 159.1395264  10.1690884  70.3207321 159.6419220  10.7561569
  70.1242447 157.9642029  10.1484108  66.7615356 158.1414642  11.6814470
  66.4811172 158.1283112  10.5104208  66.1479645 158.9454498  12.5824156
  66.4941177 159.0061035  13.5293064  65.1283951 159.9042511  12.1109314
  64.4704056 159.3665314  11.4282799  64.2794952 160.3023987  13.3421698
  63.8759651 159.3589325  13.7097740  65.0551910 160.6576233  14.0205584
  63.0777779 161.2141418  13.0576143  63.4224815 162.1015167  12.5267153
  62.4342651 160.6554871  12.3779860  62.2155991 161.8492737  14.4869699
  62.4134216 160.3840179  15.5660009  63.4228973 160.1535339  15.9064951
  61.7813644 160.6073761  16.4254875  62.0607643 159.4708099  15.0866680
  65.7567596 161.1216125  11.3919716  66.5047913 161.8252411  12.0337830
  65.5419464 161.3559875  10.0983686  65.0192947 160.6949005   9.5416765
  65.9740829 162.5758362   9.4437857  66.9777222 162.8124084   9.7971210
  65.9396057 162.2969971   7.8854985  66.5871429 161.4449005   7.6787567
  64.9016647 162.0459290   7.6669898  66.3949890 163.4592590   7.0655675
  65.8118362 164.3442993   7.3199539  67.8939362 163.7931213   7.2972956
  68.5507355 162.9817200   6.9836683  68.1249161 164.6855011   6.7155685
  68.0507355 164.0969391   8.3322840  66.2890244 163.1085968   5.5652337
  65.2174377 163.0585327   5.3721218  66.8246918 163.8090363   4.9244895
  66.7440109 162.1195526   5.5116081  64.9690323 163.7002106   9.8283691
  63.7706413 163.4093933   9.6564636  65.4314575 164.8926544  10.2572842
  66.4137421 164.8927307  10.4922771  64.7392197 166.1991882  10.4342499
  63.6745720 165.9705505  10.4826841  65.1009140 166.9170227  11.7332659
  66.1668015 167.1349640  11.6663151  64.3198242 168.2468414  11.9000254
  63.2665329 168.0553284  11.6950808  64.4446411 168.5057220  12.9514561
  64.7292480 168.9773102  11.2022400  64.8487091 165.9754181  12.9189377
  65.4119797 165.0526428  12.7799931  65.2721252 166.3796997  13.8383818
  63.4782143 165.4647980  13.2489033  63.0285606 164.9725494  12.3865728
  63.5993652 164.8016052  14.1054106  62.8306503 166.2996674  13.5167646
  64.9779053 167.0836639   9.1800575  66.1168900 167.0893707   8.7072401
  63.9913864 167.7827454   8.5824118  62.5720673 167.7438202   8.8206682
  62.3780479 168.3519135   9.7042341  62.2323227 166.7154999   8.9440174
  61.9285545 168.4369354   7.5996919  60.9342308 168.8381195   7.7958293
  61.8688889 167.6275787   6.8720274  62.9740448 169.4921875   7.1867814
  62.8820114 170.4137726   7.7614870  62.9040604 169.7541962   6.1310582
  64.3138657 168.7809753   7.4882159  64.4639740 168.1812897   6.5904808
  65.4709625 169.7291718   7.7257957  65.7725677 170.0596466   8.8562574
  66.1433563 170.1441803   6.6856332  65.6550064 170.0958099   5.8028660
  67.3878555 170.9378357   6.7270179  67.6103210 171.1770020   5.6871104
  67.2061005 171.8839722   7.2367945  68.6174927 170.2700806   7.3401999
  69.7231750 170.7389069   7.0979762  68.4846649 169.1001434   7.9828734
  67.5524139 168.7182007   8.0544167  69.6176834 168.2467499   8.4659901
  70.2384262 168.7014160   9.2380390  69.0077744 167.1076202   9.3260307
  68.4206467 167.5380707  10.1372623  68.3716812 166.5121613   8.6711235
  70.0918198 166.1878052   9.9806118  70.5914612 165.6362152   9.1842413
  70.7539902 166.8182220  10.5740795  69.4653778 165.1657562  10.9398098
  68.2780151 165.0701752  11.1845703  70.2693329 164.2232666  11.4395695
  69.8459625 163.4825897  11.9801750  71.2450867 164.2202148  11.1788187
  70.3808060 167.6729431   7.3296599  69.7596207 167.1983337   6.3670640
  71.7169495 167.6677704   7.3766408  72.1555634 168.0621948   8.1964855
  72.5480194 166.9798737   6.3276057  71.9613876 166.9462738   5.4095454
  73.7901688 167.8086243   6.0687647  74.2785797 167.9363861   7.0348067
  74.7935181 167.1633911   5.1174607  74.3218689 166.8294067   4.1932869
  75.4879074 167.9737396   4.8955474  75.4083710 166.4039612   5.6004906
  73.5015869 169.0507660   5.5104337  74.0687027 169.7040863   5.9265409
  72.8473816 165.5333862   6.7681689  73.0974045 165.2252808   7.9383616
  72.7506866 164.5084839   5.8433080  72.5659027 164.8071136   4.8963265
  72.8243637 163.1015320   6.0705972  73.1301041 162.9210663   7.1011586
  71.4116058 162.5524292   5.6935148  70.5997238 162.9703522   6.2887392
  71.2284317 162.7466583   4.6367164  71.4037170 161.0142517   5.8939929
  72.0352478 160.5715485   5.1237421  71.9267654 160.5175476   7.2540708
  71.8110580 161.3217621   7.9806910  71.5139694 159.5584869   7.5669737
  72.9999847 160.4285126   7.0856199  69.9784698 160.5660095   5.6847115
  69.4787521 160.9502869   4.7954841  69.8977127 159.4804688   5.6284475
  69.3575821 160.9550171   6.4917269  73.9903946 162.6119232   5.0914326
  73.7014618 162.3576202   3.9305668  75.2089386 162.4500885   5.5679784
  75.6427155 162.6938934   6.9598007  74.9871216 162.2311859   7.6974998
  75.6751404 163.7768402   7.0793405  77.0048828 162.0639343   7.0644808
  76.8627319 161.0376129   7.4029355  77.5975494 162.6602020   7.7582502
  77.5439224 161.9465790   5.5889392  78.2445755 161.1157684   5.5056643
  77.9397049 162.9170380   5.2894735  76.2266006 161.7718964   4.8831253
  76.2993393 162.0509033   3.8319509  75.9857483 160.2964478   4.8942304
  75.4630356 159.7424011   5.8652821  76.3356552 159.5625000   3.8425376
  76.5097504 160.0606384   2.9813550  76.1028519 158.0865479   3.7161086
  76.0445251 157.6172943   4.6981993  74.6925507 157.7303162   3.0541570
  74.7272034 158.2949982   2.1224697  74.5892105 156.6618652   2.8648639
  73.4136581 158.0643311   3.8255584  73.6313400 159.0506744   4.2352486
  72.2392044 158.0856476   2.8247068  72.1953278 157.1243439   2.3127663
  71.3774872 158.4310760   3.3958733  72.4001312 158.9237671   2.1466575
  73.0566559 157.1271362   4.9686894  73.7675247 157.3484802   5.7647910
  72.0932083 157.4582977   5.3562474  73.0167236 156.0829315   4.6586509
  77.1499786 157.3946991   2.8047955  77.5691910 157.8889618   1.8046165
  77.5764694 156.1401062   3.0999100  77.1717911 155.8246460   3.9698627
  78.3211670 155.2527771   2.2785316  78.4632645 155.6992340   1.2943592
  79.7628708 155.0215454   2.8770287  80.3191681 155.9555664   2.9560316
  79.5848236 154.7481537   3.9170613  80.7390366 153.9043579   2.3236854
  80.3599854 152.9651489   2.7265494  80.7700348 154.0076599   1.2390323
  82.2236938 154.0729523   2.7212870  82.5363770 154.9560394   3.5477078
  83.1986923 153.3265991   2.1995759  84.1643295 153.4327545   2.4759445
  82.8502884 152.6650085   1.5206099  77.6551285 153.9406433   2.0880518
  77.1641006 153.3666229   3.0932848  77.4307556 153.4583282   0.8585962
  77.9317703 153.9336700   0.1216193  76.4807281 152.4646912   0.4478512
  75.9951553 152.0510559   1.3317245  75.3955460 153.1423035  -0.4413035
  75.8193741 153.4377441  -1.4010868  74.6484528 152.3702698  -0.6254999
  74.7076950 154.3853607   0.1184658  75.4516220 155.1620026   0.2959530
  73.7585144 155.0318909  -0.8500935  72.9610901 154.3593292  -1.1661203
  73.4035492 155.9296570  -0.3440028  74.2499390 155.2900848  -1.7881418
  73.9485550 154.1280365   1.4038106  74.5680008 153.7427216   2.2136979
  73.5376358 155.0628510   1.7851105  73.1905289 153.3600464   1.2499753
  77.2478867 151.3822937  -0.3636730  77.8588104 151.6933594  -1.3859934
  77.2415390 150.1227722   0.1289543  76.7190247 150.0122986   0.9862047
  78.0821533 148.9351807  -0.3255270  78.3516617 149.1028442  -1.3682917
  79.3615189 148.8776093   0.5314714  80.0337219 148.1436768   0.0869730
  79.7826843 149.8769379   0.4217286  79.1194839 148.5617218   1.9938207
  78.5865479 149.5767365   2.8326297  78.5807877 150.5556793   2.3765049
  78.2161942 149.2672272   4.1236296  77.7296982 150.0579224   4.6754694
  78.3049240 147.9980011   4.6448750  78.0378876 147.8285065   5.6775231
  78.7047424 146.9441071   3.7466152  78.6366882 145.9538422   4.1722312
  79.1145554 147.2108002   2.4199955  79.2581329 146.4060516   1.7141916
  77.3581161 147.5432587  -0.2762052  78.0024414 146.5519104  -0.5829058
  76.0478592 147.4935150  -0.0702613  75.5625000 148.3485870   0.1607667
  75.1857681 146.3961029  -0.3777873  75.6825562 145.4295654  -0.4621960
  74.0550690 146.3087921   0.6099618  73.4417877 147.2087555   0.6550462
  73.4508591 145.4627380   0.2824868  74.5548630 145.9693604   2.0181911
  74.5705185 144.6344910   2.4750762  74.9339981 144.7281647   3.7713559
  75.0965576 143.8321381   4.3519726  75.2645645 145.9838104   4.0648055
  75.5152130 146.2474060   5.0070395  74.8986053 146.8016052   3.0384917
  74.7221680 147.8668518   3.0614502  74.5759735 146.6710815  -1.8540595
  73.9474792 147.7288666  -2.0120604  74.5697327 145.6958313  -2.8051491
  75.1836166 144.3425140  -2.7554624  75.1541214 143.8766174  -1.7704896
  76.2411346 144.4329834  -3.0035722  74.4815750 143.5294647  -3.8235331
  73.4705734 143.3420258  -3.4618113  74.9910202 142.6384735  -4.1905618
  74.3894196 144.5926514  -4.9310536  73.5197449 144.3675995  -5.5484018
  75.3388062 144.6566620  -5.4627228  74.2193222 145.9483185  -4.2661390
  74.9403458 146.6266022  -4.7223878  72.8378525 146.5081177  -4.6006541
  72.6906281 147.2371063  -5.5925069  71.8454819 146.2136536  -3.7867172
  72.0194702 145.5887756  -3.0125358  70.5085144 146.7050476  -3.8816187
  70.2487259 146.7088776  -4.9402065  69.5433197 145.7077637  -3.1624920
  68.5311050 145.8885803  -3.5241911  69.8061447 144.7043457  -3.4974003
  69.4289017 145.6316833  -1.6739537  69.3235016 146.6629028  -1.3369285
  68.5570526 145.0476532  -1.3792197  70.5750198 144.9388580  -0.8981329
  71.7406616 144.9207306  -1.2721963  70.2929306 144.4791260   0.3486515
  71.0427399 144.0048523   0.8312876  69.3343658 144.4088135   0.6590160
  70.5108337 148.1589813  -3.4374447  69.9122238 149.0173950  -4.0632625
  71.3103180 148.6004944  -2.4518754  71.9347458 147.9251862  -2.0345654
  71.5271759 150.0538025  -2.0952210  70.5470200 150.5119476  -1.9629588
  72.2743454 150.1663971  -0.7911791  73.2859497 149.7605286  -0.7948552
  72.4528198 151.2285767  -0.6236989  71.4889679 149.5570068   0.4025155
  70.4575424 149.9062042   0.3543724  71.5027237 148.4671021   0.3966991
  72.1111374 150.0731812   1.6863199  73.3500061 149.9017487   1.8348508
  71.3609619 150.5044556   2.6147618  72.2927628 150.8663788  -3.1393125
  72.0560379 152.0357819  -3.4060509  73.2721863 150.2207947  -3.7639968
  73.6146545 149.3382263  -3.4120133  73.9749069 150.7940979  -4.9719896
  74.2968826 151.7736359  -4.6185136  75.2298050 150.0324860  -5.4403982
  74.9354858 149.0684204  -5.8551722  76.0105972 150.8580170  -6.4398313
  76.3653717 151.7570648  -5.9358783  76.7862244 150.2207184  -6.8645000
  75.4245605 151.1781464  -7.3013330  76.1324005 149.6326294  -4.3061023
  75.6739578 148.9717255  -3.5704937  76.9595871 149.0742645  -4.7443910
  76.5265121 150.5172119  -3.8058128  73.0436401 150.9664307  -6.1645088
  73.0433121 152.0540619  -6.7620082  72.2623367 149.9363098  -6.5605121
  72.3973007 149.0963440  -6.0161347  71.3424683 149.9353943  -7.6913919
  71.9787140 150.2643280  -8.5130329  70.8363953 148.5423584  -7.9430504
  71.7030029 147.8918762  -7.8248501  70.0356827 148.3069000  -7.2419724
  70.4658127 148.3951874  -9.2598267  69.9520111 147.5933228  -9.3807678
  70.2353363 150.9486542  -7.6702762  69.9674072 151.6083221  -8.6961365
  69.6080551 151.0683899  -6.4678688  69.9608307 150.5362091  -5.6852798
  68.5536499 152.0491486  -6.1372447  67.7115173 151.8556213  -6.8016758
  68.1156540 151.7694855  -4.6554351  68.1605301 150.7101135  -4.4028606
  68.8546295 152.2188110  -3.9920139  66.6676636 152.1748962  -4.3051372
  66.0060883 151.9178925  -5.1323977  66.3842545 151.7399597  -3.3466916
  66.3708954 153.9239960  -4.1487012  67.2143097 154.3690796  -2.6261928
  68.2656708 154.0988464  -2.7247405  67.1882858 155.4384460  -2.4167585
  66.7640762 153.8477631  -1.7814306  69.0538177 153.4717407  -6.3473864
  68.4063644 154.2239075  -7.1422768  70.1892395 153.8809967  -5.7420483
  70.6432800 153.2828217  -5.0666714  70.5989380 155.2753754  -5.8911815
  69.7271805 155.9070892  -5.7207165  71.6109772 155.7454987  -4.8010387
  71.7862091 156.7953491  -5.0359864  71.1667480 155.6007233  -3.3783679
  71.4745789 154.6060181  -3.0559897  71.7062836 156.3607178  -2.8131995
  70.0862503 155.7162018  -3.2930379  72.9662323 155.0853882  -4.9432631
  73.3842468 155.1145325  -5.9494977  73.6048279 155.6878967  -4.2972922
  73.0054932 154.0223389  -4.7055869  71.0814896 155.4930725  -7.3481846
  70.7670364 156.5893250  -7.8873191  71.7122803 154.5506287  -7.9977078
  72.0537262 153.7495117  -7.4861183  72.0476379 154.5947113  -9.4763517
  72.7078781 155.4514008  -9.6114502  72.8102264 153.3611603  -9.9114714
  73.6218796 153.1741180  -9.2083826  72.1739044 152.4769897  -9.8733521
  73.4183655 153.5333862 -11.2793303  72.6905823 153.9006958 -12.0028725
  74.1101608 154.3723755 -11.3542891  74.1700592 152.2689056 -11.7463903
  73.4317932 151.4674835 -11.7744541  74.5123596 152.3586731 -12.7773466
  75.3061295 151.9214172 -10.8295794  75.7692490 152.7376251 -10.4561853
  75.9626694 150.7845917 -10.5785685  75.5616913 149.6101532 -10.9375820
  74.5864029 149.5128632 -11.1813946  76.1386871 148.7859802 -10.8486567
  77.1350555 150.9309082 -10.0285397  77.3239212 151.8254395  -9.5993013
  77.6486206 150.0892181  -9.8096447  70.8474350 154.9547729 -10.3712626
  70.9515610 155.9687042 -11.0159702  69.7297745 154.2152557 -10.4040136
  69.7331619 153.4313354  -9.7671804  68.5520706 154.4088593 -11.2594118
  68.8330994 154.6502075 -12.2845335  67.8198013 153.0109711 -11.3681631
  67.4462738 152.6932220 -10.3947077  66.9239426 153.1497498 -11.9733677
  68.6632538 151.8684540 -11.9586592  69.8275299 152.0287476 -12.3407946
  68.0611572 150.6947479 -12.1650696  68.5873642 150.0047760 -12.6819239
  67.1310959 150.5214539 -11.8114338  67.6350708 155.5198669 -10.7835722
  66.7355270 155.8959198 -11.5167913  67.8234329 156.1025085  -9.6186399
  68.6165543 155.7391052  -9.1097336  67.2000809 157.3430786  -9.0581341
  66.1932907 157.4162750  -9.4693737  67.1445847 157.1530151  -7.4754863
  66.5152588 156.2844696  -7.2813406  68.1472626 156.9226837  -7.1153612
  66.6589508 158.3835907  -6.6176147  67.3466110 159.2191925  -6.7479882
  65.2157898 158.7315063  -7.1176028  64.7804108 157.7324219  -7.0981679
  64.8005447 159.3965454  -6.3603730  65.3088074 159.2295074  -8.0827150
  66.6466141 158.0591736  -5.1075745  67.6612396 157.9029694  -4.7412024
  66.1509476 158.8497467  -4.5441732  66.0688553 157.1444092  -4.9752898
  67.9074097 158.6073761  -9.4911556  67.2543106 159.6151123  -9.7961969
  69.2341995 158.5886993  -9.6099434  69.7469635 157.7850342  -9.2763424
  70.0316544 159.7851410  -9.8652143  69.6774902 160.5481720  -9.1720629
  71.5388794 159.5922699  -9.4607954  71.5893402 158.6957855  -8.8428259
  72.4311066 159.1733093 -10.6657734  72.5782394 160.0800171 -11.2525692
  73.3538513 158.7170258 -10.3073759  71.8675842 158.3950500 -11.1804256
  72.2192841 160.8142395  -8.7963581  73.2900314 160.6609650  -8.9309464
  71.8349457 161.7071991  -9.2893209  71.8634186 160.8435974  -7.3147416
  72.0669861 159.8884430  -6.8306522  72.4324188 161.6410675  -6.8368349
  70.8348770 161.1257629  -7.0898399  69.8321609 160.3389740 -11.2999868
  70.1664429 161.5034790 -11.6152363  69.2416077 159.5751343 -12.2122192
  69.1221619 158.5905762 -12.0212278  68.7928619 159.9959106 -13.5680799
  69.3867188 160.8575287 -13.8730869  68.9645538 158.8638763 -14.6055088
  68.8567047 157.9127655 -14.0841284  68.1188965 158.9227448 -15.2907038
  70.3146744 159.0714874 -15.3891573  70.3054123 158.2004242 -16.0443439
  70.3335037 159.9846649 -15.9840117  71.5703888 158.9578400 -14.5305386
  72.3298111 159.9001160 -14.3939581  71.8816376 157.8229980 -13.9892845
  72.7002716 157.8084869 -13.3979082  71.3758011 156.9581146 -14.1165190
  67.3782501 160.6289673 -13.6309328  66.8392334 160.8717957 -14.7268076
  66.7024689 160.7334137 -12.4578266  67.1766129 160.4820557 -11.6021938
  65.4174423 161.3344116 -12.2209063  65.1824493 161.9611511 -13.0811825
  64.2484207 160.2121429 -12.2676163  63.2799644 160.6822510 -12.0967884
  64.2144928 159.8351593 -13.2897882  64.4944305 159.0012360 -11.3765221
  65.5331421 158.7010040 -11.5145073  64.3101578 159.3766479 -10.3699341
  63.4837532 157.8607330 -11.5923519  63.3147049 157.2256622 -10.7227459
  62.4762993 158.2709198 -11.6622066  63.7999535 156.9562378 -12.8141212
  63.4710388 157.4589996 -13.7236023  64.8717804 156.8192749 -12.9574070
  63.1239014 155.5989532 -12.7512522  62.1204224 155.6909637 -12.6828890
  63.2940750 155.0609283 -13.5889072  63.3267784 155.1079407 -11.8922758
  65.3629303 162.3018494 -10.9773254  66.0664062 163.2931366 -11.0269127
  64.3608704 162.0928955 -10.1137466  63.8623276 161.2162018 -10.1681566
  63.9052429 162.9833374  -8.9807234  63.7602959 163.9946442  -9.3606339
  62.5877075 162.4442902  -8.4816818  62.1270447 161.7337799  -9.1680288
  62.8832092 161.8440247  -7.6211820  61.4755135 163.4906921  -8.1467342
  61.6614342 164.6910553  -8.2925501  60.3613815 163.0893097  -7.8040380
  64.8730392 163.2021332  -7.8101673  64.7430038 164.2572479  -7.1795168
  65.8058853 162.2898254  -7.5447025  65.9183502 161.5840607  -8.2583933
  66.8397980 162.3197937  -6.4419360  67.2908630 161.3302460  -6.5158219
  67.9580154 163.3833771  -6.6257119  67.4870453 164.3524933  -6.4610381
  68.6877747 163.2284088  -5.8310232  68.5933990 163.3315582  -8.0320873
  69.1325226 162.3860168  -8.0904026  67.8833542 163.2438812  -8.8544312
  69.5382462 164.4816132  -8.2136269  70.1924667 164.5043640  -7.3420916
  70.1370926 164.2738190  -9.1003647  68.7471542 165.7254944  -8.3584995
  68.2993164 165.8502045  -9.2551556  68.6341476 166.7981110  -7.5673995
  69.3556900 166.9451141  -6.5144372  70.0639801 166.2846069  -6.2277641
  69.1818619 167.7715759  -5.9605126  67.7288437 167.7287292  -7.8330212
  67.1362991 167.6117859  -8.6425400  67.7307892 168.6460266  -7.4103408
  66.3492813 162.3649292  -4.9588733  67.1847610 162.4586792  -4.0423632
  64.9903870 162.3698120  -4.7446127  64.4007874 162.6963959  -5.4968238
  64.4141693 162.3042145  -3.3651805  65.1930008 162.7734833  -2.7640815
  63.0526848 163.0189209  -3.2089953  62.5437851 162.4743500  -2.4136620
  63.1708755 164.5067444  -2.8661363  63.6432228 165.0238800  -3.7013321
  62.1599045 164.8774414  -2.6969721  63.7308006 164.6028442  -1.9358965
  62.2977753 162.9250336  -4.3872776  62.1862793 162.0017090  -4.6252880
  64.3095627 160.8184662  -3.0377610  63.9065056 159.9378510  -3.8156645
  64.6206665 160.4880524  -1.7472379  64.9976501 161.2278595  -1.1721928
  64.4061890 159.2133026  -1.1929585  63.6612206 158.7260284  -1.8220009
  65.6518478 158.3242798  -1.1909646  65.3788681 157.2717743  -1.1146328
  66.0755463 158.3712158  -2.1941493  66.7971954 158.6006317  -0.2687632
  67.8362885 159.4745026  -0.6544842  67.7156830 159.9490051  -1.6171367
  68.8687820 159.7539062   0.2164197  69.6406021 160.4234467  -0.1334665
  68.9583359 159.1833801   1.4961284  69.6162262 159.4171448   2.3201041
  67.9657211 158.2473602   1.7932421  68.1092529 157.7017059   2.7141445
  66.9026794 157.9397430   0.9666337  66.2071381 157.1584625   1.2353559
  63.8742256 159.3670197   0.2183712  64.2254028 160.3360291   0.8831506
  62.8206940 158.5664368   0.5598053  62.6397591 157.7943268  -0.0656618
  62.2009735 158.7187958   1.8390065  62.1059341 159.7907410   2.0122483
  60.7339592 158.1892548   1.7322702  60.7579536 157.2142029   1.2456597
  60.3139725 158.0580597   2.7295148  60.1650200 158.8856201   1.1162443
  63.0585060 158.1717682   2.9828961  63.5738182 157.0517273   2.8700330
  63.0573311 158.8730164   4.1363378  62.5435867 159.7251129   4.3098416
  63.6863708 158.3081512   5.3835306  64.1009903 157.3135529   5.2193065
  64.9818878 159.1177521   5.7194815  64.7604446 160.1707153   5.8936410
  65.7308121 158.5424652   6.9580584  66.0388870 157.5049286   6.8287683
  66.6521225 159.1079254   7.0978541  65.0822372 158.6636353   7.8256779
  65.9561386 159.0490112   4.5931330  65.6878510 159.7999878   3.8500679
  66.8824234 159.5620422   4.8517656  66.2157364 158.0519867   4.2372041
  62.6745949 158.2711334   6.5764565  62.0563698 159.2714233   6.9303427
  62.3178596 157.0652771   6.9931121  62.8419495 156.2491913   6.7112803
  61.1991730 156.8227386   7.8828402  60.3492279 157.4024353   7.5227628
  60.8050690 155.3614960   7.8320141  61.6545258 154.6938782   7.9762454
  60.0802917 155.0778961   8.5951433  60.1186180 154.9368286   6.4842029
  60.7197800 155.2089539   5.6166449  59.9943352 153.3953552   6.5447869
  59.2634544 153.0247955   7.2635245  59.6253700 153.0408325   5.5823536
  60.9940300 153.0069122   6.7392435  58.6907806 155.5148010   6.2534246
  58.7737350 156.5758514   6.0180664  58.2654305 155.0343933   5.3722992
  58.1141624 155.3456573   7.1628222  61.6058426 157.1717834   9.3395281
  62.7721329 156.9149933   9.7025986  60.7142677 157.6931305  10.1122427
  59.8182793 157.8446655   9.6714010  60.7418289 157.5473785  11.5723410
  61.8193970 157.5409241  11.7363873  60.2466888 158.8465424  12.2344046
  59.1846466 158.7723236  12.4682007  60.7488060 158.7927704  13.2003698
  60.5788002 159.7100525  11.6580667  60.2311783 156.1964264  12.0750799
  59.0017548 155.9497070  12.1724796  61.1634254 155.3085632  12.3755617
  62.1151505 155.6069946  12.2166386  60.9035339 153.9965515  12.9313173
  60.0773621 153.5510406  12.3771935  62.1271629 153.0843964  12.7431917
  62.9250603 153.5945282  13.2828531  61.8664627 152.1314545  13.2036734
  62.4800453 152.7661133  11.2924614  61.6452866 151.8948517  10.4864941
  60.9572296 151.2454376  11.0073109  61.8591270 151.6631165   9.1589336
  61.2606163 150.8948669   8.6920538  62.9521065 152.2924652   8.5641594
  63.2799263 152.0664368   7.2447815  62.9432831 151.2286835   6.9185305
  63.7045631 153.2919922   9.2349195  64.4647522 153.8992462   8.7661390
  63.4394836 153.4617310  10.6303940  64.0251389 154.2484283  11.0826206
  60.4801140 154.0300598  14.3397608  61.3776398 154.1484070  15.2428637
  59.1367493 153.8414154  14.6747637  58.6290169 153.5133667  13.8656340
  58.4961662 153.9639435  15.9538603  58.8868828 154.8690186  16.4189396
  57.0490761 154.2388153  15.6831713  56.5745201 154.2636871  16.6641293
  56.8648300 155.2302704  15.2694492  56.4415741 153.2221222  14.8675652
  55.4943810 153.2438812  15.0223217  58.6787376 152.7518158  16.8148384
  58.7301712 152.7820740  18.0578804  58.9634628 151.6320801  16.1450214
  58.9567223 151.6975403  15.1371670  59.5671921 150.3750000  16.6601620
  59.9656334 150.5283661  17.6630707  58.3896446 149.4042816  16.9030457
  57.7143440 149.8841553  17.6114120  57.8453674 149.2561188  15.9703531
  58.7702293 148.0941315  17.4962006  59.9523697 147.7325134  17.6535263
  57.7893944 147.3605499  17.8508625  57.9975090 146.5373383  18.3977776
  56.8217583 147.6002655  17.6886234  60.5424652 149.8925018  15.6324749
  60.2177849 149.4621429  14.5199652  61.7915459 149.9712067  16.0693436
  61.9964142 150.2804565  17.0087528  62.9022179 149.8160400  15.0541821
  62.5695076 150.2029114  14.0909882  64.1464920 150.6433258  15.4160318
  63.7673721 151.5584564  15.8708811  65.0338287 149.9604645  16.4126911
  65.2514801 148.9406281  16.0954151  65.9912109 150.4685822  16.5281658
  64.5164185 149.9094391  17.3707047  64.9948807 151.0088959  14.1708078
  64.3941574 151.6802979  13.5572338  65.8698425 151.5532379  14.5261135
  65.3899765 150.1390533  13.6460581  63.1853485 148.2975769  14.7963247
  63.5862389 147.8938141  13.7448511  62.8058510 147.3976288  15.7642727
  62.4861183 147.7873535  16.6394787  62.8651695 145.9754028  15.6733255
  63.8445778 145.6420593  15.3301878  62.8606949 145.4253387  17.1175442
  63.4934921 146.0368500  17.7607498  61.8704338 145.4871979  17.5688267
  63.3318443 143.9423676  17.1046066  62.7563095 143.3548431  16.3892803
  64.3962097 143.9246368  16.8702755  63.0976677 143.3543243  18.4825783
  63.6273575 143.9666290  19.2123909  62.0120506 143.3561859  18.5802078
  63.6797791 141.9785614  18.4860859  64.6409531 141.8964996  18.7852859
  63.0346832 140.8501282  18.4264965  61.8156586 140.7663574  17.9038315
  61.3800278 141.5717468  17.4776001  61.3035316 139.9099579  18.0600204
  63.5065994 139.7574615  18.9028950  64.4478531 139.7234955  19.2675762
  63.0144539 138.8804016  18.8098068  61.7603989 145.3840637  14.7868519
  62.0425682 144.4285736  14.0568323  60.5291595 145.9042511  14.8347778
  60.2565842 146.4072876  15.6670952  59.4652443 145.5292664  13.9167671
  59.6026154 144.4778595  13.6642094  58.0940933 145.5566711  14.7369337
  58.0017471 146.5733948  15.1188040  57.3451233 145.3215942  13.9807034
  58.0620842 144.5530853  15.8731737  58.7945938 144.8383636  16.6282520
  57.1100655 144.6076965  16.4011650  58.3692017 143.0670929  15.4762316
  57.7153931 142.4835510  14.5937757  59.2943649 142.4641724  16.1212349
  59.3242836 146.4283752  12.7190018  58.6478195 146.0378265  11.7725172
  60.0918312 147.4919891  12.6653576  60.4955025 147.8037872  13.5370960
  60.1669540 148.4362335  11.5588980  60.7999344 149.2397766  11.9354057
  60.9140739 147.8700562  10.3185072  60.2161827 147.2532806   9.7522535
  61.2587547 148.5845032   9.5709381  62.0956650 146.8969421  10.5762768
  62.6057739 147.2341309  11.4786015  61.6512566 145.9149475  10.7383986
  63.0900269 146.7092438   9.4578028  63.7710495 145.8641205   9.5581017
  62.5354347 146.3962097   8.5731888  63.7481918 148.0224152   9.4033384
  63.6052094 148.5804596  10.2329445  64.6042023 148.3883057   8.5166502
  64.9504166 147.5854340   7.5704989  64.5068283 146.6790619   7.6131186
  65.4981003 147.9685669   6.8132958  65.2431870 149.5234222   8.6439991
  65.1025848 150.1298828   9.4393234  65.9573517 149.7368622   7.9624381
  58.8593597 149.1403961  11.2541523  58.6023674 149.4705353  10.0963535
  57.9793015 149.3831024  12.1944695  58.1597443 148.9196014  13.0735025
  56.8522415 150.3069763  12.1807098  56.2379341 150.0440369  11.3195543
  55.9621849 150.0967407  13.4131708  56.6478767 150.1535492  14.2585678
  55.1886826 150.8640747  13.4448195  55.3167038 148.6978149  13.4836493
  54.9671135 148.3448334  12.5134487  56.0777397 147.9725647  13.7716303
  54.2105713 148.6626740  14.5171566  54.5358238 148.4834137  15.7181320
  52.9874306 148.6878510  14.1649408  57.2016144 151.7251892  12.0635433
  58.1271820 152.2155457  12.7172794  56.4709778 152.4187164  11.1366577
  55.6807671 151.9402313  10.7283316  56.6670380 153.8150330  10.8608456
  56.8645897 154.2975464  11.8180609  57.9308243 154.0169830   9.9868965
  57.8147316 153.5055542   9.0313568  57.9943314 155.0936584   9.8293114
  58.7791595 153.6499481  10.5645809  55.4135933 154.4447021  10.1893234
  55.0528030 154.0101929   9.1100950  54.8620186 155.4330902  10.8796129
  55.2586823 155.6291504  11.7875299  53.6651344 156.1458893  10.3727436
  53.1920547 155.4947510   9.6376848  52.6588821 156.4121704  11.5385227
  53.0363121 157.2043152  12.1851702  51.6763344 156.6585846  11.1360502
  52.3874626 155.2423248  12.4172897  51.9616737 153.9488373  12.0666742
  52.0220680 153.2229309  13.1487513  51.7320366 152.1826630  13.1598034
  52.3831024 153.9633484  14.2026453  52.5545883 153.6358795  15.1425705
  52.5728989 155.2367859  13.7685003  52.8460999 156.0868835  14.3760242
  54.0987587 157.5180359   9.7388687  53.2488632 158.2459106   9.1884050
  55.4050484 157.9566498   9.8646307  56.0332947 157.4068451  10.4330702
  55.8274307 159.3002930   9.3759089  55.2807198 159.5517426   8.4670715
  55.5553398 160.4375000  10.4299459  55.9309616 160.0610352  11.3814106
  56.0577774 161.3742828  10.1889515  54.0437126 160.6977234  10.7523718
  53.2707787 161.6872864  10.1209850  53.7022896 162.2843933   9.3312626
  51.9172554 161.8731995  10.4706688  51.4101677 162.6778107   9.9589357
  51.3569527 161.2287140  11.6035967  50.3164024 161.3509521  11.8657217
  52.1844940 160.2926331  12.3193588  51.7386589 159.7953491  13.1680870
  53.4830437 160.0759430  11.8960476  54.0162735 159.3953552  12.5432358
  57.3455009 159.2910919   9.0514269  58.0459785 158.3120117   9.2728949
  57.8565750 160.4804382   8.5911770  57.1530914 161.1754761   8.3859282
  59.2417831 160.6492462   8.0994644  59.9014549 160.6224518   8.9667702
  59.4601479 159.8357239   7.4076610  59.4972000 161.9648438   7.4351373
  58.6758842 162.8451538   7.4365301  60.6284523 161.9846802   6.7427258
  61.1912384 161.1518860   6.8418646  61.1145554 163.1262360   5.8994150
  60.2372704 163.7583923   5.7621026  62.1283493 163.9370880   6.7093992
  62.8527145 163.1881561   7.0295520  62.8627052 165.0194855   5.9602585
  62.0452576 165.6119995   5.5494070  63.3886108 165.6330872   6.6917052
  63.4969711 164.6370850   5.1605210  61.6161537 164.5299377   7.8786826
  62.0476074 164.1360626   8.6404676  61.7241325 162.6315002   4.5889950
  62.3665810 161.5943451   4.5732794  61.4868164 163.3555450   3.4411550
  60.8586578 164.1462097   3.4223111  62.1822433 163.0783081   2.1186523
  62.2685013 162.0044098   1.9530455  61.4385147 163.7456360   0.9204891
  61.8917389 163.7070923  -0.0700672  60.0202942 163.2680359   0.7333257
  59.3910484 163.6721039   1.5263405  59.6274567 163.4775696  -0.2615967
  59.9464874 162.1845856   0.8271495  61.2100029 165.0690460   1.3265994
  62.0416908 165.4873810   1.0922964  63.5974960 163.7232361   2.1485128
  63.7792358 164.9518127   2.1871016  64.6273346 162.8895264   2.0499270
  64.4293823 161.9073639   1.9224066  66.0367584 163.2722168   1.7164632
  66.3125916 164.1637726   2.2796333  66.9869690 162.0906372   2.2121041
  66.7307053 161.1013947   1.8328854  68.0470963 162.2183075   1.9931649
  66.8926926 161.9790497   3.2922709  66.1707687 163.4742584   0.1751454
  65.7785339 162.6469727  -0.6390825  66.9143753 164.5115051  -0.2297804
  67.2407455 165.2170258   0.4150498  67.3320694 164.7052612  -1.6136817
  66.9207001 163.9598846  -2.2943187  66.8316345 166.0601807  -2.0878382
  65.7565842 166.1663971  -1.9426234  67.2946472 166.7884827  -1.4220375
  67.0216064 166.4369049  -3.5520580  67.8402557 165.8206482  -3.9237292
  66.1266937 166.1356049  -4.0965300  67.3061371 167.9304504  -3.8597143
  66.4346466 168.8095703  -3.6043279  68.2888184 168.1969452  -4.5376377
  68.8568344 164.6091766  -1.6763598  69.5619278 165.1513367  -0.8420232
  69.4128036 163.8525543  -2.6179643  68.7857437 163.4485626  -3.2989068
  70.8325348 163.6622772  -2.7901802  71.3321838 163.6974487  -1.8220766
  71.1843414 162.2971344  -3.4280446  70.7261810 162.3646240  -4.4147768
  72.6723785 162.1736145  -3.6719680  73.2375412 162.3016815  -2.7487707
  72.9684296 161.2006683  -4.0641980  73.0051422 162.9147034  -4.3987179
  70.5153656 161.1090546  -2.7221401  70.9107208 160.9963684  -1.7126393
  69.4606171 161.3466339  -2.5836637  70.6648788 159.7698975  -3.4563820
  71.7396164 159.5881653  -3.4584134  70.2699051 158.9602509  -2.8427324
  70.2060776 159.8489838  -4.4419532  71.3854065 164.8439636  -3.5765049
  71.1427307 165.0182037  -4.7669883  72.1290665 165.7229614  -2.8428640
  72.4447098 165.3949432  -1.9412731  72.7647552 166.9553986  -3.4043560
  72.1563950 167.2119904  -4.2716284  72.6222534 168.1110687  -2.3677750
  72.7436066 169.0879517  -2.8358285  71.5716476 168.1015167  -2.0775287
  73.5741501 168.1635590  -1.2029200  74.7340698 168.9116821  -1.1419638
  75.0381927 169.4560852  -2.0237517  75.5023727 168.9518433   0.0157302
  76.3910522 169.5629272  -0.0412295  75.0715179 168.2881470   1.1931006
  75.8190536 168.3784332   2.3578346  76.3661728 169.1672363   2.3647881
  73.8626480 167.5637512   1.1884089  73.4683228 167.1909943   2.1222038
  73.1209564 167.5635986   0.0046208  72.1491089 167.0927887   0.0208474
  74.2272720 166.7649078  -3.9470148  74.6261139 167.5181122  -4.8657813
  74.9604568 165.7254944  -3.4196727  74.6027756 165.3072662  -2.5727677
  76.2789993 165.3357239  -3.8435497  76.3722076 165.7924347  -4.8288517
  77.3562927 165.9126892  -2.9382634  77.5338135 165.2081909  -2.1256959
  78.2663345 166.1595306  -3.4850793  77.2142258 166.8968353  -2.4917262
  76.4222946 163.8062592  -3.8725474  75.8331833 163.0954590  -3.0415676
  77.1777496 163.3442841  -4.8649583  77.5470505 164.0765839  -5.4544005
  77.2554321 161.9703369  -5.2724695  77.1477280 161.3845062  -4.3596177
  76.0371399 161.7194977  -6.1513281  75.1098633 161.9520721  -5.6277275
  75.8443527 162.4087372  -6.9734435  75.8499527 160.4015961  -6.8479853
  74.8860092 159.5095520  -6.3862939  74.2639236 159.7273865  -5.5307465
  74.7920456 158.2196808  -6.9869933  73.9345322 157.5925293  -6.7927198
  75.6091003 157.8484650  -8.1170473  75.3365631 156.7337341  -8.9204636
  74.7485428 156.1207428  -8.4731693  76.5921249 158.7638702  -8.5281343
  77.1493530 158.4465027  -9.3971500  76.7256546 160.0326691  -7.9104595
  77.3326797 160.8169708  -8.3380051  78.5443039 161.5423431  -5.9120440
  79.1508636 162.3281860  -6.6759963  78.9775467 160.3042755  -5.6080136
  78.3965759 159.7931671  -4.9589100  80.1802673 159.6933136  -6.1914182
  80.3127823 160.0053558  -7.2273531  81.3466034 160.2563324  -5.3470774
  81.2720261 161.3432465  -5.3133035  81.1750641 159.9939423  -4.3031273
  82.8071289 159.9924927  -5.8019691  82.9924164 158.9184875  -5.8186727
  82.8781357 160.4987335  -6.7646608  83.8714294 160.5456085  -4.8898349
  83.5097427 161.4290009  -4.3636255  84.0843506 159.8312836  -4.0945330
  84.9755554 161.0408936  -5.6715140  84.7921143 161.8529968  -6.2432995
  86.0547409 160.3863373  -5.9837232  86.5262604 159.2776642  -5.4332538
  85.9203110 158.7037354  -4.8644538  87.4337769 158.9083710  -5.6784792
  86.8917465 160.9499207  -6.8298922  86.6020279 161.8419800  -7.2045841
  87.7929916 160.5225525  -6.9886737  80.2370224 158.1077576  -6.1525331
  80.0771408 157.4645691  -5.1046996  80.3302231 157.4440155  -7.2789435
  80.1662445 158.0083771  -8.1003513  80.5779190 155.9730377  -7.3889318
  80.1270599 155.4724884  -6.5320292  79.8994522 155.4225311  -8.6235228
  80.3076630 155.9171295  -9.5049086  80.2060699 154.3773499  -8.5826311
  78.3561325 155.5587616  -8.6469288  77.9060516 155.4447632  -7.6607575
  78.1187744 156.5128632  -9.1175318  77.6957321 154.5478821  -9.6162367
  76.9239655 153.6823730  -9.1940880  77.9765015 154.6154480 -10.8430729
  82.0781708 155.6130219  -7.5114789  82.8105621 156.3885193  -8.1579447
  82.4609985 154.5293427  -6.9385023  81.7562408 153.9047852  -6.5733156
  83.8085403 153.9803619  -6.8255091  84.4747467 154.4441376  -7.5529633
  84.6152420 154.3339844  -5.5639386  84.1403427 153.8972015  -4.6854186
  85.6410370 153.9658051  -5.5811734  84.6870956 155.8822174  -5.3882160
  85.1498413 156.2936554  -6.2852616  83.6738815 156.2586670  -5.2475314
  85.5743332 156.3207855  -4.2421556  86.6114349 155.7201691  -3.8288541
  85.2761383 157.4016266  -3.6924603  83.7036743 152.4550934  -7.1223197
  82.6415863 151.8990784  -6.8941941  84.7481232 151.7238159  -7.5447249
  85.5780411 152.1386566  -7.9437752  84.7498703 150.2614136  -7.6004362
  83.9272461 149.9095764  -6.9778566  84.5077972 149.8584137  -9.0989523
  83.5181808 150.1883698  -9.4150105  85.1879120 150.4606323  -9.7013426
  84.6555481 148.3323364  -9.3329926  85.6584015 148.0170746  -9.0449152
  83.9001236 147.6743317  -8.9035168  84.6150742 148.0403290 -10.8410702
  85.6337738 147.6287994 -11.4053993  83.4287033 148.2384644 -11.4668722
  83.2994156 147.9794922 -12.4345083  82.8188934 148.8800201 -10.9804163
  86.0335999 149.7255707  -6.9482255  87.1343307 149.8119965  -7.5386639
  85.9818726 149.0961761  -5.7613459  85.0743713 148.8549957  -5.3893609
  87.2091446 148.5024261  -5.0910287  87.9922028 148.2122345  -5.7915320
  87.8586197 149.5167694  -4.0665455  87.1116867 149.8559265  -3.3487971
  88.6897964 149.0379181  -3.5489035  88.5734940 150.6027832  -4.8157296
  89.3218765 150.1108551  -5.4370389  87.8261719 151.1616364  -5.3790212
  89.3110352 151.6416473  -3.9671440  89.3950729 151.6179047  -2.6947987
  89.9866333 152.4244232  -4.6861606  86.8919907 147.2281952  -4.2883096
  85.7232666 147.0085602  -4.0002403  87.9042969 146.3231354  -4.0073252
  88.8184204 146.6454468  -4.2912292  87.8373489 144.9934235  -3.3047392
  88.8641281 144.6584015  -3.4516661  87.7033997 145.2230835  -1.8344766
  86.6671371 145.4597473  -1.5931222  87.8622055 144.3117065  -1.2580407
  88.5313416 146.3204346  -1.1228204  89.8620224 146.0650635  -0.6837193
  90.2609329 145.1139526  -1.0041080  90.6892929 147.0442352  -0.0929938
  91.7089233 146.7993011   0.1653947  90.1037750 148.3076782   0.0930145
  90.8175888 149.3362885   0.5798948  91.7593536 149.1501617   0.5726490
  88.7713852 148.6305389  -0.3242631  88.3453903 149.6019897  -0.1212952
  87.9371643 147.6248169  -0.9149221  86.9332275 147.8861847  -1.2152505
  86.8181000 144.0333099  -3.8691273  86.3304443 143.2055054  -3.1027849
  86.6090927 143.9831390  -5.1844645  87.1720505 144.6286926  -5.7196507
  85.7686844 143.0914459  -5.9095068  85.9858551 143.1508789  -6.9759979
  85.9567566 142.0751648  -5.5632243  84.2503433 143.4039154  -5.8086925
  83.4696884 142.4447021  -6.0695543  83.8506699 144.5956726  -5.3932996
  84.5927582 145.2717285  -5.2821622  82.4629288 145.0780945  -5.2337317
  81.7737732 144.4438782  -5.7913475  82.0649109 145.0745544  -3.7324126
  81.0145721 145.3591461  -3.7948430  82.2110214 143.7244720  -3.0208788
  83.2204666 143.3363037  -2.8850491  81.8768311 143.7972260  -1.9859275
  81.5692062 143.0177765  -3.5469513  82.8618622 146.1310883  -2.9224176
  83.8420486 145.6655731  -2.8193326  83.0353470 147.0448914  -3.4907179
  82.2580032 146.6809845  -1.5814898  82.3038864 145.9048157  -0.8175687
  82.8599396 147.4877472  -1.1632894  81.2562866 147.0795135  -1.7422265
  82.2786331 146.4607391  -5.8623872  83.2553787 147.1681366  -5.9649935
  81.0345230 146.8386841  -6.1946349  80.2836609 146.1774139  -6.0566711
  80.7204895 148.2268372  -6.4912963  81.5639420 148.7386932  -6.9546566
  79.5864563 148.2867126  -7.4979577  78.6990891 147.8952637  -7.0005093
  79.3820114 149.3312225  -7.7331572  79.8355484 147.5279541  -8.7907381
  80.8698654 147.6705017  -9.1037312  79.6924973 146.4577484  -8.6414223
  78.9385452 148.0544739  -9.8902283  77.7251968 148.2604218  -9.6117516
  79.3844223 148.2375641 -11.0438156  80.2561569 148.9647217  -5.2270064
  79.8425903 148.3975525  -4.2156744  80.3827667 150.2787018  -5.1825538
  80.8874130 150.7888947  -5.8932800  79.9830322 151.0654297  -3.9492505
  79.0723724 150.6039124  -3.5674191  81.1379776 150.9159851  -2.9195633
  81.2950821 149.8429413  -2.8100510  82.4918518 151.5082092  -3.3454645
  82.3199081 152.5704956  -3.5189338  83.2021179 151.4411774  -2.5213714
  82.9005966 150.9413147  -4.1819162  80.8689194 151.6269073  -1.7488984
  81.2808151 151.2067261  -0.9903541  79.7810211 152.5200500  -4.3148170
  80.2216873 152.9866638  -5.3943410  79.1422501 153.2993774  -3.5113783
  78.8655090 152.8810577  -2.6347206  78.8020554 154.7035980  -3.7418771
  79.6809006 155.0854187  -4.2614336  77.4972153 154.7539215  -4.6623178
  77.6692963 154.2725830  -5.6250310  76.2435150 154.1190643  -4.0690541
  75.7907791 154.7693939  -3.3205974  75.5325394 153.9167175  -4.8700972
  76.4798584 153.1823578  -3.5642478  77.0989227 156.1507416  -5.0345163
  77.9809570 156.5844727  -5.5057020  76.3002701 156.0628662  -5.7710838
  76.7637711 156.7323914  -4.1757598  78.7162170 155.4876862  -2.4541886
  78.2584000 155.0431213  -1.4299809  79.1985245 156.7556915  -2.5371168
  79.6713486 157.0298767  -3.3864417  79.2111511 157.7649994  -1.4433978
  78.7935028 157.3045044  -0.5480702  80.5957031 158.1510620  -1.1973751
  81.0084381 158.7503815  -2.0088916  80.6639252 158.8942566  -0.4029536
  81.5014191 157.0061951  -0.7391050  81.1733093 156.5515442   0.1956388
  81.3498535 156.1331177  -1.3738310  82.9390793 157.5086975  -0.7806470
  83.2025223 157.8523254  -1.7809592  83.0302353 158.3860016  -0.1402146
  83.9394531 156.5137482  -0.3318063  83.9538422 156.4796906   0.7575675
  83.8484421 155.5135651  -0.7554135  85.3027954 156.8570709  -0.8139811
  85.7005997 157.5646362  -0.2129636  85.9380722 156.0744781  -0.7502247
  85.3011322 157.1709290  -1.7739782  78.3094406 158.9010010  -1.7755648
  78.3513641 159.3841705  -2.8799372  77.4241104 159.2575989  -0.8068219
  77.4436646 158.9546814   0.1564834  76.4333801 160.3764648  -0.9982788
  76.7704315 161.0103302  -1.8184723  75.0876617 159.7756042  -1.3963680
  74.5227432 160.6845703  -1.6031817  75.1917572 158.9889679  -2.6548805
  75.7650833 158.0965424  -2.4039314  74.1823120 158.6626587  -2.9051588
  75.5071335 159.6473694  -3.4642925  74.2624435 158.9154663  -0.4256579
  74.1790848 159.5367432   0.4660683  73.2253876 158.7665253  -0.7263584
  74.8374100 157.9925079  -0.3502458  76.2037735 161.2921448   0.2243910
  76.2329483 160.8767548   1.3576713  75.8827133 162.5540771  -0.0493707
  75.8834457 162.8558197  -1.0132462  75.4216156 163.5797272   0.8882976
  75.3192215 163.2556610   1.9239608  76.4765701 164.7256317   0.8919265
  76.7403793 164.8918610  -0.1525223  76.0045471 165.6120758   1.3156109
  77.6384430 164.4250946   1.7853215  77.3783035 164.5658264   2.8344276
  77.9254150 163.3957977   1.5702062  78.8229675 165.2874756   1.4773450
  79.5831833 165.1036682   2.2365482  79.2116699 165.0158997   0.4958884
  78.6866608 166.8017731   1.4613448  77.9512634 167.0601959   0.6994323
  78.3247070 167.0318909   2.4634085  79.9757385 167.4872589   1.1302340
  80.2358093 167.1431427   0.2169677  79.8830109 168.4926758   1.1053032
  80.7582169 167.2369385   1.7177521  74.0379944 163.9942017   0.4591095
  73.8165512 164.2795563  -0.7041439  73.0592270 163.9776459   1.3598148
  73.3300323 163.6780701   2.2855704  71.6400909 164.2467804   1.1775901
  71.5485611 164.7248840   0.2023314  70.9083557 162.8603973   1.0722104
  70.8473740 162.3184052   2.0159450  69.9185104 163.1185303   0.6958140
  71.4344864 162.2860260   0.3097230  71.1154404 165.1411285   2.2259259
  71.7173462 165.2812500   3.2924826  69.9828568 165.7916718   2.0014188
  69.5791168 165.7277985   1.0778326  69.4823914 166.8976135   2.8514974
  69.8390045 166.7258148   3.8670788  70.0622864 168.2311859   2.4521022
  71.1357269 168.0761871   2.3435047  69.4446411 168.7779388   1.1632384
  68.4039841 169.0633392   1.3171048  70.0152588 169.6792450   0.9393260
  69.6975174 168.0873108   0.3587599  69.9225616 169.2887268   3.5059586
  68.8865814 169.6250000   3.4639976  70.1680069 168.7801056   4.4382443
  70.8825912 170.4912567   3.4500713  70.5224152 171.1826324   2.6882467
  70.9039459 170.9930878   4.4174356  71.8692169 170.0895691   3.2191663
  67.9957428 166.8523712   2.9447367  67.3327179 166.4213257   1.9847487
  67.4118805 167.0871277   4.1100507  67.9766159 167.2999725   4.9199066
  65.9319916 166.8704834   4.1911888  65.6882248 165.8957520   3.7685978
  65.7670975 166.9089508   5.2679605  65.0075989 167.9342499   3.6852496
  65.0232697 169.0563507   4.2884183  64.2899628 167.7090912   2.6022592
  64.2493210 166.7492218   2.2906630  63.3683777 168.6997833   1.9705517
  63.8483772 169.6748810   2.0535319  63.2745323 168.3869476   0.4958590
  63.0668755 167.3345032   0.3026389  62.4208946 168.8679199   0.0182724
  64.4646301 168.7410278  -0.4129834  65.3989105 168.5724030   0.1225523
  64.4536438 168.0836792  -1.2823914  64.5537567 170.1275940  -0.9955342
  65.2010498 170.0451202  -1.8686397  63.6255417 170.4323273  -1.4789191
  65.0477676 171.0760193   0.0722314  64.3218460 171.5863800   0.5545977
  66.3073730 171.5051270   0.3545502  67.2435074 170.9880219  -0.3843409
  66.9857025 170.3115692  -1.0886462  68.1725998 171.3756104  -0.3027333
  66.6054459 172.3738403   1.3058496  65.8877106 172.8008118   1.8738613
  67.5770569 172.6336975   1.3982779  62.0177040 168.8945618   2.7084954
  61.6519089 169.9995270   3.0270274  61.2872162 167.7672119   2.9805603
  61.5858612 166.8367615   2.7252502  59.7827721 167.8094330   3.4246137
  59.6176643 168.8157043   3.8096790  58.9530220 167.5251160   2.1521940
  59.0860748 166.4637451   1.9426804  57.9497681 167.8057709   2.4728405
  59.2260742 168.3832245   0.8908255  58.6894646 169.3289490   0.9665852
  60.2697105 168.6973877   0.8759228  58.9809341 167.7074127  -0.4906775
  58.5350380 168.3174438  -1.4542845  59.1888809 166.4287567  -0.6346061
  58.9888535 166.0189819  -1.5358119  59.6784172 165.9526367   0.1095471
  59.5376358 166.7805481   4.4535651  60.0441208 165.6636658   4.3391280
  58.5973854 167.0478363   5.3769984  58.1657600 167.9565887   5.2877560
  57.9414062 165.9687653   6.1602325  58.6893387 165.2144012   6.4044027
  57.3749695 166.5813446   7.4215422  56.7749443 167.4770660   7.2610493
  56.7004280 165.8928680   7.9305453  58.4019051 167.0072937   8.4875898
  58.8778419 166.1175079   8.8997288  59.1119232 167.7177887   8.0642891
  57.6388245 167.4597626   9.7348127  56.8730316 166.7163849   9.9562731
  58.3729172 167.5496368  10.5355234  57.0162354 168.7986450   9.5381432
  57.5534019 169.5035706   9.0537481  55.8000412 169.1203461   9.8332853
  54.8907738 168.3152771  10.2822361  55.1968117 167.4881592  10.7744694
  53.9523659 168.6882629  10.2627764  55.3673439 170.3532867   9.5562611
  56.0719490 171.0648804   9.4248390  54.3854980 170.5772552   9.4793043
  56.8046570 165.1730042   5.4883380  56.1618729 165.7042847   4.5399919
  56.5111160 163.9315491   5.9625368  57.0877113 163.5337982   6.6901512
  55.2815628 163.1679993   5.5879340  54.5844460 163.9529724   5.2947707
  55.6160774 162.4253387   4.2908702  54.6720924 161.9952850   3.9561286
  55.9107170 163.1066742   3.4926968  56.7077713 161.3553009   4.4390063
  56.5766602 160.2124634   5.2597442  55.7258186 159.9355927   5.8645601
  57.6313171 159.3223267   5.4567733  57.4150887 158.4153290   6.0017552
  58.8449860 159.5299072   4.8658581  59.6304169 158.8052063   5.0218210
  59.0188484 160.6035004   3.9395404  59.9948921 160.6479340   3.4793649
  57.9682388 161.5142975   3.7461014  58.0812531 162.2894592   3.0026419
  54.7248878 162.2415314   6.6747804  55.3933792 161.8865662   7.6463957
  53.4208603 161.8650360   6.3867960  53.1206665 162.3046875   5.5284896
  52.6194839 160.7544556   6.8487282  52.8508377 160.4576263   7.8716993
  51.1278839 161.1794586   6.9486561  51.1639404 162.1339417   7.4737782
  50.6364403 161.3005219   5.9832931  50.2852516 160.1729584   7.7527480
  50.5226326 159.1976471   7.3278732  50.5699844 160.2436676   8.8025284
  48.7639465 160.2923431   7.7298474  48.4265976 160.4902344   6.7124281
  48.4174500 159.3387604   8.1282263  48.1884537 161.3615417   8.6174860
  48.5605774 161.1993561   9.6290779  48.4841537 162.3766479   8.3524895
  46.6842117 161.3087311   8.5848475  46.3999825 160.3774872   8.8533278
  46.3106804 161.9646149   9.2559719  46.3094673 161.4791412   7.6625524
  52.7572556 159.5280304   5.9443803  52.7264671 159.7512512   4.7498555
  52.9294014 158.3213654   6.4866090  52.9285202 158.2119141   7.4906607
  52.8593254 157.0437317   5.7327414  53.1977234 157.2533569   4.7180223
  53.8387794 156.0589752   6.4608774  53.4766617 155.9142609   7.4787335
  53.8989677 154.7021942   5.7741599  53.9884682 154.7608185   4.6894212
  54.6515312 154.0860901   6.2662692  52.9706955 154.1564789   5.9432864
  55.2371025 156.6107483   6.3970819  55.4194603 157.5025635   6.9966731
  55.8390274 155.9174652   6.9845753  55.5936699 156.6557007   5.3680334
  51.4527168 156.4641724   5.5694284  50.7288246 156.4141388   6.5903149
  51.1507912 155.9447937   4.3889804  51.8576622 156.0683899   3.6782360
  49.8530884 155.3399506   4.0393004  49.0916977 155.4150085   4.8156724
  49.3361397 155.9937592   2.7730687  50.0709419 155.8526611   1.9804403
  48.4187622 155.4260559   2.6174510  48.9873352 157.5103607   2.7588546
  49.8310738 158.1531219   3.0099590  48.4936256 157.8206177   1.4086330
  47.6786575 157.1588745   1.1153147  48.1169319 158.8413086   1.3423342
  49.3143082 157.7117157   0.6996051  47.9080772 157.9120026   3.6855974
  48.2914314 157.7280731   4.6892505  47.6822891 158.9758759   3.6127520
  47.0777512 157.2491760   3.4420624  49.8698959 153.8328247   3.6811831
  48.8810616 153.1194611   3.8458965  51.0186806 153.4433136   3.1825368
  51.8013458 154.0789185   3.1231089  51.3524361 152.0143280   2.8527079
  51.0514641 151.3812866   3.6874449  50.7737236 151.5176086   1.5113026
  49.6984558 151.3634186   1.6013662  51.1317024 152.2104797   0.7497984
  51.3849983 150.1730347   0.9692982  52.3974838 150.3650208   0.6141739
  51.3342094 149.4538879   1.7868341  50.5164566 149.7160339  -0.2174670
  50.4422073 150.5147552  -1.1704031  49.9784241 148.5832520  -0.2261312
  52.8836517 151.8777924   2.8806760  53.4874992 152.8259277   2.3711262
  53.4184113 150.6726074   3.2428954  52.8126373 149.9089813   3.5075271
  54.7840881 150.2642670   2.9253309  55.3308105 150.9838409   2.3158922
  55.6687927 150.0961456   4.2109547  55.1825256 149.3413544   4.8289671
  57.0936508 149.5605927   3.8226643  57.5217438 150.3423615   3.1952391
  57.7423401 149.4755859   4.6944890  56.9891167 148.6379852   3.2517145
  55.7742500 151.4383545   4.9092832  56.3991547 152.1140747   4.3253288
  54.7622032 151.8243561   5.0311866  56.4200668 151.5208435   6.3112125
  57.4315147 151.1199493   6.3771796  56.3920097 152.5527039   6.6613154
  55.8382950 150.9519196   7.0364532  54.6846199 148.9738922   2.1043265
  53.9005585 148.0944061   2.4360824  55.5144234 148.7808685   1.1001608
  56.0734978 149.5604553   0.7843001  55.6879234 147.5704346   0.1989574
  55.1697273 146.6681976   0.5238168  55.2035446 147.7987976  -1.2150743
  54.1276894 147.9683533  -1.1715397  55.5993309 148.7451935  -1.5835563
  55.3700829 146.6419067  -2.2211156  56.4306107 146.4217377  -2.3432364
  54.8326302 145.8030090  -1.7789775  54.7360115 146.9134674  -3.5992012
  53.6895676 147.1620026  -3.4222975  55.2778397 147.7788391  -3.9808822
  54.8043938 145.7146301  -4.5950208  55.0275688 144.7740021  -4.3025699
  54.5490494 145.7598267  -5.8777752  54.5115662 146.8941803  -6.5326371
  54.5548782 147.7709961  -6.0332150  54.0812531 146.8632050  -7.4458580
  54.3848724 144.7112122  -6.6966095  54.2582932 143.7894897  -6.3035526
  54.3945312 144.8901520  -7.6905842  57.2045479 147.1851654   0.1941863
  58.0207634 148.0571289   0.0092034  57.5730896 145.8928680   0.1236217
  56.8268929 145.2125549   0.1449384  58.9136581 145.4608307  -0.2870525
  59.6078224 146.3011932  -0.2928427  59.4909096 144.4655304   0.7013321
  59.0207481 143.4869080   0.6047814  61.0084724 144.3666687   0.5154089
  61.5047989 145.2885284   0.2122115  61.4972420 143.9817963   1.4104422
  61.2146721 143.6389923  -0.2694876  59.3579063 144.9518280   2.0815985
  58.5305710 144.6255493   2.4430609  58.9289246 144.9031677  -1.7042305
  58.1867332 143.9650574  -2.0425510  59.8112297 145.4841309  -2.5656540
  60.3638268 146.2645111  -2.2404752  60.1269341 144.8689270  -3.8566954
  59.2584915 144.4611206  -4.3739967  60.7153702 145.9127350  -4.8557811
  61.5495453 146.4458771  -4.3996906  61.0696754 145.2899017  -5.6771436
  59.6054726 146.8078766  -5.4650841  58.8970680 146.1440887  -5.9607315
  59.2538567 147.4560089  -4.6623502  60.2175369 147.7662201  -6.4743595
  60.4393311 148.9294586  -6.1789613  60.5115242 147.3523254  -7.6822867
  60.9200630 148.0537262  -8.2833166  60.2341881 146.4830017  -8.1152363
  61.0497475 143.6636353  -3.5682817  61.7697334 143.5607300  -2.5615940
  60.9271812 142.7586975  -4.4949417  60.3196831 142.9273682  -5.2839870
  61.5880394 141.4388580  -4.4282165  61.2795563 141.0675201  -3.4509542
  61.1700478 140.5054169  -5.5547647  61.4380264 140.8920135  -6.5380430
  61.6760483 139.5408936  -5.5129595  59.7434273 140.2938690  -5.5335126
  59.5310516 139.5688019  -4.9412565  63.1250153 141.4523621  -4.4961376
  63.7593689 140.4712067  -4.0843215  63.7980461 142.5555115  -4.8427877
  63.2349243 143.3071899  -5.2142529  65.2353058 142.7241669  -4.6516175
  65.8649292 141.8447723  -4.7871232  65.7177277 143.6848145  -5.7956414
  66.7751007 143.5052338  -5.9901009  65.3534470 143.3668823  -6.7725329
  65.4144440 145.1409149  -5.6027212  64.5474472 145.4632568  -4.7671342
  65.9577789 146.0104980  -6.3025136  65.6196747 143.2596436  -3.2235069
  66.8180695 143.2969055  -2.9173748  64.6761093 143.5209351  -2.3001759
  63.7082214 143.4606018  -2.5824189  64.9065094 143.7950897  -0.8801714
  64.1881485 143.1500397  -0.3742505  65.9114532 143.4900970  -0.5883271
  64.6937637 145.2837372  -0.4864589  64.5174637 145.5221558   0.6704683
  64.7105331 146.2848511  -1.3924717  64.7733231 145.9849701  -2.3548789
  64.3186646 147.6644287  -1.0657887  64.7725525 147.8947296  -0.1019170
  64.8688660 148.7666779  -2.0046797  64.7497330 149.7464752  -1.5421851
  66.3708038 148.6133728  -2.1015501  66.6405258 147.6639404  -2.5640895
  66.9039383 149.4289551  -2.5901027  66.9082413 148.5483856  -1.1554866
  64.2024307 148.8316956  -3.4778342  64.9863510 149.0652313  -4.1982694
  63.9058113 147.8093262  -3.7121170  63.0187950 149.8257599  -3.6391771
  63.3243942 150.7824249  -3.2154870  62.8198738 149.8704224  -4.7099462
  62.1132698 149.3781586  -3.2295694  62.7995605 147.8616333  -0.8216602
  62.0018234 147.2380981  -1.5199205  62.3821144 148.7922058   0.0404011
  63.1047668 149.1678925   0.6376768  61.0164413 149.1684875   0.3722802
  60.3170700 148.3980255   0.0476853  60.8231049 149.3645172   1.9058250
  61.5071335 150.1418915   2.2462540  59.7767906 149.5446472   2.1525538
  61.2584381 148.0263977   2.5997670  60.9907608 147.1410217   2.0230789
  62.3178368 148.0676117   2.8529038  60.6840248 147.9079132   4.0620737
  61.1623993 148.5521240   4.9958658  59.8146477 146.9596100   4.3329177
  59.7741470 146.7457581   5.3191843  59.6113892 146.2007294   3.6981847
  60.6008339 150.4059906  -0.4250625  61.3386765 151.4485779  -0.4878519
  59.3175888 150.3700104  -0.8626378  58.8188362 149.5408936  -0.5729564
  58.6055489 151.4673920  -1.4475929  59.3382721 152.2648468  -1.5712981
  57.9122314 151.1355133  -2.7751420  57.3055191 150.2589722  -2.5478387
  57.1271019 151.8533783  -3.0125215  58.8864098 150.9110260  -3.9550896
  59.7556114 150.2917786  -3.7334599  58.2845612 150.3853607  -4.6964216
  59.4977646 152.1812897  -4.5463700  59.2681618 153.2881165  -4.0472636
  60.1043129 152.0383606  -5.6626315  60.5298080 152.8660278  -6.0550642
  60.2659950 151.0950470  -5.9853101  57.5986519 151.9319458  -0.3736601
  57.0951500 151.0874176   0.3895338  57.3322182 153.2470856  -0.2991472
  57.9348755 153.8685455  -0.8194132  56.4061203 153.8135071   0.7053416
  55.8649940 152.9967804   1.1830982  57.3173332 154.5574036   1.7905151
  57.9620628 155.2549438   1.2558614  56.8297691 155.1153717   2.5899193
  58.0373993 153.8368988   2.1784358  55.4618607 154.7752228   0.0093279
  55.9569931 155.7113190  -0.6081233  54.1111679 154.6631470   0.1816730
  53.7365379 153.8930206   0.7170650  53.2395248 155.7398682  -0.2578420
  53.6854057 156.3370972  -1.0532093  51.9213028 155.1577911  -0.6632935
  51.6176987 154.4796295   0.1342173  51.2191887 155.9742737  -0.8321312
  51.9637222 154.3849640  -1.9921428  52.2835274 155.0304871  -2.8101404
  52.5405350 153.4613190  -1.9444636  50.4531136 153.9724579  -2.3301349
  50.0277863 153.3947906  -1.5094668  49.9047546 154.9112701  -2.4078224
  50.3261223 153.1128693  -3.6419480  49.2786293 153.0493622  -3.9366190
  50.8671532 153.6929626  -4.3895326  50.9308968 151.7188110  -3.5064604
  50.5312386 151.2245331  -2.7215581  50.6858330 151.2287292  -4.3549113
  51.9398041 151.6985931  -3.4640331  53.0430069 156.6716003   0.9577795
  52.8166122 156.2406311   2.1006136  53.2048874 157.9509583   0.7397478
  53.5493431 158.2241516  -0.1695442  53.1617355 159.0133514   1.7774081
  52.7041245 158.5657349   2.6596437  54.6505775 159.4462128   2.0472124
  54.6913643 160.0569458   2.9491146  55.5531616 158.2189636   2.4885728
  55.6968117 157.5425873   1.6459620  56.5338020 158.6005554   2.7728755
  55.0326157 157.6942291   3.2896941  55.3923683 160.1364136   0.9137692
  54.8245926 160.9616241   0.4839342  56.3623619 160.5048370   1.2476635
  55.7144966 159.3973389   0.1802154  52.3783264 160.2066040   1.3538086
  52.0752792 160.3520660   0.1900060  52.0502396 161.1599426   2.2528589
  52.3242607 160.8824463   3.1845300  51.5166359 162.4639893   1.9998091
  51.3802185 162.5751038   0.9241026  50.0786057 162.4550323   2.7000654
  49.5331306 161.5958862   2.3096440  50.2009773 162.4321136   3.7829320
  49.3150482 163.7076874   2.3844273  49.9041634 164.5764160   2.6782920
  49.2559662 163.7779999   1.2983029  47.8847160 163.8290863   2.9359229
  47.0864258 162.8758087   2.9943907  47.4238167 164.9642639   3.3754189
  46.5418854 165.0070496   3.8657882  48.0889626 165.7222748   3.4311559
  52.4278526 163.5266724   2.5704851  52.6649437 163.3988037   3.7944515
  52.9009895 164.4326172   1.6571430  52.6505280 164.2935486   0.6886230
  53.6343842 165.6267090   2.0501232  54.5376244 165.2684326   2.5439820
  54.2567368 166.3622437   0.8276487  53.4567223 166.4865875   0.0978435
  54.7517738 167.8113403   1.1396368  55.5870934 167.7903900   1.8395693
  55.1144066 168.2566681   0.2131996  53.9341202 168.4470673   1.4793534
  55.5478859 165.6158905   0.2113643  55.9399185 166.1638947  -0.6454326
  56.2659264 165.5361023   1.0275537  55.3081741 164.2078094  -0.3506680
  54.5099983 164.1531830  -1.0909601  56.2199745 163.7965851  -0.7838221
  55.0514565 163.5505829   0.4801522  52.9347839 166.5266113   3.0784535
  52.0394859 167.3209229   2.7405457  53.3074951 166.3986511   4.3882985
  54.1784859 165.9222412   4.5740910  52.8833847 167.3669128   5.3660522
  51.8038254 167.4594116   5.2473197  53.1869888 166.7350616   6.7590394
  54.2486801 166.4933929   6.8091054  53.0486603 167.4609070   7.5603518
  52.3464584 165.4775848   7.0129833  52.3673668 164.6988678   6.2505817
  52.8560944 164.7354126   8.3078623  52.6984520 165.3392639   9.2015142
  52.3672829 163.7647095   8.3909597  53.9179764 164.4923859   8.2698374
  50.8893089 165.8691559   7.2075987  50.5575752 166.5175018   6.3966103
  50.2694855 164.9754791   7.2802281  50.7199020 166.4211731   8.1320829
  53.5705948 168.7425385   5.1763868  54.8116417 168.8834381   5.2199578
  52.8215904 169.8209686   5.0702186  51.3969040 169.8433990   4.7948093
  50.9002647 169.4650726   5.6882944  51.1825790 169.2663574   3.8952603
  50.9961777 171.3229370   4.6097507  50.5350075 171.7144318   5.5164833
  50.2956467 171.4979248   3.7932093  52.3381424 172.0276031   4.3853521
  52.2665138 173.0759735   4.6749635  52.6193733 172.0294800   3.3322587
  53.3838844 171.1643219   5.2131720  54.3532104 171.2358246   4.7198176
  53.3835678 171.7082214   6.6661520  52.8831024 171.1566925   7.6606236
  54.0679054 172.8866272   6.7808294  54.5956116 173.1348267   5.9561944
  54.0192757 173.9233856   7.7529707  54.1758614 173.4186249   8.7062902
  55.1762466 174.9332123   7.4106421  54.9938507 175.2492523   6.3835320
  55.1777267 175.7808990   8.0958681  56.5776253 174.2886047   7.4128852
  56.5466461 173.3893585   6.7976646  57.3041801 174.9949341   7.0112510
  56.8481979 173.8255920   8.8530579  57.4472923 174.6469269   9.6290331
  56.6340942 172.6283569   9.2656469  52.6551857 174.7127228   7.6831012
  52.3005791 175.2036743   6.5933056  51.9773560 174.9048767   8.8295650
  52.3043671 174.5530853   9.7180500  50.8475723 175.8624573   8.8966255
  50.3972702 175.8806763   7.9041557  49.8191338 175.2901001   9.9126520
  50.4260368 175.1291351  10.8036413  48.9561386 175.9408417  10.0536556
  49.2872772 173.9077759   9.3019390  48.8994064 174.1057739   8.3027153
  50.1087837 173.2110291   9.1352434  48.2677078 173.2066803  10.2478228
  48.1817665 172.2070923   9.8217793  48.5682373 173.0872040  11.2887402
  46.9816132 173.9407349  10.2448215  46.6320305 174.1176453   9.3139114
  46.1251373 174.0020142  11.2574329  46.3203087 173.7679443  12.4905300
  47.2445564 173.6308136  12.8740253  45.5767822 173.8468628  13.1695280
  44.9646797 174.4026184  10.9190798  44.8750496 174.6406403   9.9416275
  44.1549873 174.2997284  11.5139837  51.3087196 177.2631073   9.3335581
  51.0715828 177.5698547  10.4592772  51.8925514 178.0745239   8.4344444
  52.0375175 177.6522522   7.5284834  52.5837784 179.3194580   8.8042698
  53.3409500 179.0682526   9.5470285  53.3858948 179.7292480   7.5254874
  52.7463913 179.9139252   6.6623406  54.2155190 181.0437622   7.7446823
  54.8662033 180.9485321   8.6139526  54.8422050 181.1972961   6.8661652
  53.5692673 181.9143219   7.8568387  54.4164886 178.6329803   7.1638927
  53.9115219 177.8641510   6.5790596  55.1862030 179.0219421   6.4972959
  54.9393387 178.2893066   8.0564289  51.5988655 180.4465637   9.2754440
  50.9950066 181.1907806   8.4680758  51.4480515 180.5706329  10.6114817
  51.8001862 179.8293610  11.2002096  50.5963402 181.5745544  11.2139034
  49.6009407 181.4764709  10.7806969  50.2719002 181.1810760  12.6704960
  51.1787453 181.3056793  13.2622776  49.4984207 181.9023743  12.9342308
  49.7848854 179.7602692  13.0145407  50.4986382 179.0388031  12.6168699
  49.7294807 179.7127991  14.5701714  49.5970421 180.6650085  15.0838528
  49.0402260 178.9574280  14.9475689  50.7323494 179.3838348  14.8424606
  48.4281845 179.4874420  12.3102598  48.5461464 179.5308228  11.2275295
  48.3032265 178.4309540  12.5475559  47.6465149 180.1707153  12.6422958
  50.9836693 183.0626984  10.9258842  52.1247406 183.4049988  11.2314787
  50.0509071 183.9098969  10.4444103  48.7494583 183.5766602   9.8877172
  48.1905479 183.0447388  10.6576376  48.8324928 183.0074310   8.9618750
  48.0545006 184.8820343   9.6091509  47.4583015 185.0411377  10.5076685
  47.4695435 184.9439087   8.6914930  49.2079277 185.8793793   9.5485659
  48.9131050 186.8404999   9.9697924  49.6121902 185.9775848   8.5410805
  50.3261795 185.3515625  10.3968010  51.2791901 185.5726013   9.9161530
  50.3894310 185.9371948  11.8358450  50.2736397 185.2411652  12.8310423
  50.5360870 187.2256775  12.0398426  50.5677299 187.8399506  11.2387371
  50.7757492 187.7937317  13.3577824  51.6321564 187.2851562  13.8005209
  51.2546120 189.2582855  13.1666832  51.9705925 189.3993988  12.3570166
  50.4058838 189.8458710  12.8166752  51.6905594 189.8599548  14.3770208
  51.6416206 190.8186035  14.3911381  49.5588493 187.7000275  14.3506775
  48.3987732 187.8511505  13.8870478  49.7546616 187.5521545  15.6643372
  50.6793594 187.4504395  16.0576458  48.6738968 187.3298035  16.6220741
  48.1080704 186.4358673  16.3597183  49.2273102 187.2448425  18.0260048
  48.4994659 187.4073181  18.8209572  49.8560448 185.8774872  18.3097725
  50.5791016 185.5956421  17.5443611  50.4473686 185.8466339  19.2249165
  49.0763359 185.1171112  18.3543091  50.2153473 188.2681732  18.2039471
  50.7864838 188.0684204  18.9492702  47.5878830 188.3789215  16.5532360
  46.3958702 188.1105499  16.6644135  48.0493393 189.6449280  16.5112858
  49.0367775 189.8227234  16.3953094  47.1871796 190.8782806  16.4813728
  46.3382454 190.7763672  17.1574173  48.0108032 192.0983124  17.0285892
  48.7048340 192.3924561  16.2412510  47.2894173 192.9037018  17.1665573
  48.7444611 192.0159760  18.3702297  49.4656334 191.2052155  18.2668648
  49.2532234 192.9549866  18.5881863  47.6925163 191.7576599  19.8500500
  47.8824654 190.0057831  20.1847954  48.8131218 189.7932129  20.7109089
  47.0030441 189.7440643  20.7732010  47.8945160 189.3460236  19.3172226
  46.6005173 191.2057953  15.0680046  45.6545258 191.9823151  14.9822292
  47.1195488 190.7558594  13.8935852  47.8245621 190.0394897  13.9929018
  46.6993027 191.2248230  12.5605335  47.0466156 192.2524872  12.4538145
  47.4824257 190.3516388  11.5226345  47.3771935 190.7634583  10.5189228
  48.5474358 190.3456879  11.7546110  46.9570122 188.9986115  11.4825573
  47.2012291 188.5382538  10.6763134  45.2132072 191.3085632  12.2676554
  44.7697487 192.2566071  11.5627460  44.4685135 190.3303528  12.6891575
  44.8738976 189.5451965  13.1783257  43.0236053 190.1773529  12.5609045
  42.7577820 190.3783417  11.5230980  42.7098351 188.7769623  12.9722424
  42.9885788 188.7511902  14.0256824  41.6528511 188.5682220  12.8069677
  43.2302704 188.0067139  12.4030561  42.1933479 191.1296387  13.4593821
  41.0043221 191.3234253  13.2221537  42.7993736 191.7433167  14.5045462
  43.7769585 191.5571594  14.6770887  42.2130661 192.7161560  15.4753056
  41.1469955 192.6860962  15.2501612  42.4013863 192.1924286  16.9781570
  42.5769348 191.1193390  16.9022160  43.6073074 192.7962799  17.6326122
  43.5217247 193.8777771  17.7382088  43.8207245 192.4080505  18.6285191
  44.5445290 192.6032257  17.1106529  41.1239586 192.3190002  17.8066444
  40.2817459 191.7636719  17.3938713  41.3973351 191.8829803  18.7675037
  40.8702888 193.3602753  18.0054073  42.6458817 194.2162170  15.3293047
  41.8176270 195.1221008  15.4646130  43.9108887 194.4611206  14.9110651
  44.5564880 193.6844940  14.8986797  44.4992828 195.8177185  14.7539244
  44.0375710 196.4777679  15.4882679  45.9211807 195.7896881  15.1958427
  46.1302338 196.8415527  15.3907738  46.1046104 195.3318939  16.1678886
  46.9438629 195.0899963  14.2247181  47.0188141 194.0379639  14.4998827
  46.6113853 195.1533356  13.1885967  48.3353233 195.6413879  14.1608944
  48.7725677 196.4268341  15.0031834  49.2050819 195.2325897  13.2726593
  50.1084404 195.6644745  13.1402798  48.8868599 194.4893188  12.6673584
  44.1949654 196.5584564  13.4412909  45.0961494 197.3186951  13.0570192
  43.0749588 196.2824097  12.7333498  42.4874763 195.5254974  13.0528088
  42.7115059 197.0509186  11.5593805  43.6346092 197.2317200  11.0086679
  41.6567955 196.2875214  10.7171850  40.7469940 196.0190277  11.2540951
  41.3255424 196.9462433   9.9144049  42.3175316 195.0144348  10.1253242
  43.4057961 195.0303802  10.1847000  41.8541183 193.7249908  10.8702736
  40.7930107 193.5466919  10.6960621  42.4252625 192.8765717  10.4933605
  41.9984703 193.7202911  11.9506626  41.7989464 194.7126770   8.7083960
  41.8605309 195.6100922   8.0928116  42.5580902 194.0489807   8.2944918
  40.7713699 194.3504791   8.7400150  42.2567520 198.4698334  12.0295696
  41.0516319 198.7797089  11.9924202  43.2127266 199.3029022  12.4753151
  44.1633415 198.9752197  12.3801250  43.0786705 200.7282257  12.7997293
  42.3366737 201.1566162  12.1259146  42.5567055 200.8595886  14.2093115
  42.2186928 201.8755798  14.4132996  41.6439476 200.2650757  14.2485104
  43.5362167 200.4092560  15.3085470  44.0390053 199.4989471  14.9819555
  44.3353348 201.1162567  15.5314074  42.7345772 200.0832977  16.5660286
  42.5964279 198.9474640  16.9003181  42.2106819 201.1028595  17.2105026
  41.4311142 200.9603882  17.8366604  42.4360466 201.9857025  16.7747421
  44.4156418 201.3793945  12.5209923  45.4255257 200.7456970  12.2142382
  44.4620361 202.7021027  12.7175436  43.6166267 203.2223206  12.9039860
  45.6473694 203.5538788  12.4714041  45.9484634 203.3074036  11.4532251
  45.3136749 205.0455017  12.3763599  46.1695709 205.6264191  12.0327272
  44.5073586 205.1256561  11.6472979  45.0490189 205.3804321  13.7291861
  44.6624222 206.2523346  13.8384743  46.8691444 203.1954498  13.2660942
  47.9494095 203.7416840  13.0002632  46.7979813 202.3467560  14.3393307
  45.8772163 201.9753265  14.5246096  47.9874191 201.8523560  15.1352949
  48.7336845 202.6427155  15.2160921  47.5325394 201.5678406  16.6026344
  46.6087570 200.9894867  16.6176510  48.3271179 200.9842529  17.0675659
  47.4402313 202.7898102  17.5155315  48.4384270 203.2221222  17.4461365
  46.3819809 203.9036560  17.3348713  45.3887978 203.4680176  17.2257481
  46.3844185 204.6655273  18.1143875  46.6496086 204.4407349  16.4249153
  47.2826233 202.1902618  18.9341278  48.1231613 201.5043488  19.0395451
  47.3260651 202.9220276  19.7408085  46.3607216 201.6245575  19.0688992
  48.7788925 200.6740112  14.4405842  49.8352509 200.2398529  14.9144478
  48.3164673 200.1737976  13.3352995  47.5422134 200.6679230  12.9152184
  48.9356689 199.0175476  12.6127720  48.9735832 198.2451324  13.3809195
  48.0370522 198.5228271  11.5229654  48.5277596 197.7395935  10.9451790
  47.1433029 198.1178436  11.9976149  47.7879791 199.5415649  10.5044537
  47.0102463 200.0475006  10.7509556  50.3597984 199.1895752  12.0299358
  51.1496696 198.2597504  11.8191404  50.7418060 200.4979401  11.8547363
  50.0911179 201.2081909  12.1584425  52.0571747 200.9318848  11.2497730
  52.4343529 200.1110229  10.6398382  51.8274536 202.1035004  10.2498112
  52.7341042 202.4358215   9.7441998  51.1619682 201.6681671   9.5043421
  51.1566505 203.2906036  10.9406652  50.2202721 203.1497803  11.4805384
  51.8405762 203.7468719  11.6563196  50.7528381 204.4241638   9.9563751
  51.5851059 204.7808838   9.3495951  50.0310097 203.9892883   9.2650385
  50.0324097 205.4946594  10.6659861  49.2515182 205.2426453  11.2548933
  50.2571831 206.7554169  10.7095079  51.3381157 207.2767792  10.2152939
  51.7906723 206.7316284   9.4955006  51.3590698 208.2819061  10.3122511
  49.5615578 207.5612946  11.4130888  48.7546272 207.2946320  11.9588442
  49.8208313 208.5355988  11.4732180  53.1399002 201.3627930  12.2860069
  54.1074638 202.0338593  11.8606672  52.9445457 201.0417633  13.5878563
  52.1484833 200.4795990  13.8530979  53.9955635 201.1975861  14.6692200
  54.3497200 202.2283325  14.6540356  53.2620926 201.0948639  16.0077248
  52.6767921 200.1764984  15.9616852  53.9514580 200.9356995  16.8369064
  52.2294922 202.2467194  16.2430973  52.6621170 203.1993256  15.9373398
  51.3433075 202.1297455  15.6193209  51.7598305 202.4619598  17.6746883
  50.7938423 202.9501953  17.5458565  51.6240234 201.5269928  18.2183037
  52.5926056 203.3388367  18.5027122  53.3512039 203.8014832  18.0225067
  52.5234947 203.5441589  19.7860622  51.5998573 202.9904633  20.5290337
  50.9773560 202.3315735  20.0835571  51.6327515 203.0447693  21.5370369
  53.3359528 204.4324493  20.3370781  54.1649742 204.7564850  19.8597660
  53.2304726 204.7306671  21.2962723  55.2290344 200.2077332  14.5661373
  55.3733253 199.3578644  15.4181099  55.8948517 200.2675629  13.4384165
  55.6018524 201.0022583  12.8103428  56.7428017 199.2495270  12.7750425
  56.1100998 198.3625488  12.8078060  56.8123207 199.7260895  11.3162155
  55.8396111 200.1237946  11.0267906  57.5520210 200.5253296  11.3628149
  57.2124710 198.7274323  10.2902870  58.3676224 198.7371979   9.5475492
  58.2885933 197.7241058   8.6484737  59.0249138 197.4447327   7.9094291
  57.1044197 197.1056976   8.8174973  56.8078766 196.3185883   8.2583742
  56.4074860 197.7014923   9.8331480  55.3537788 197.5350189  10.0016098
  58.0642281 198.8282471  13.4073458  58.6982460 199.5149078  14.2399979
  58.6169014 197.6512909  12.9679546  58.1387939 197.1069031  12.2642879
  59.9408607 197.0772858  13.4704151  60.0736923 197.1214142  14.5513906
  59.8183479 195.5572357  13.0423908  60.8027649 195.1526337  13.2776442
  58.8739166 194.8218689  13.9635983  57.8242607 194.9527435  13.7005625
  59.1180534 193.7595825  13.9576864  58.9951248 195.2498016  14.9587317
  59.4767876 195.2647858  11.5587339  58.4080544 195.3553162  11.3645267
  60.0762367 195.9416504  10.9499578  59.9310455 193.9138641  10.9685392
  59.2754250 193.1000214  11.2782888  59.8389244 194.0639038   9.8928518
  60.9611473 193.6670074  11.2255602  61.2921295 197.6627655  12.7955523
  61.1793900 198.4320374  11.8077030  62.5780411 197.5129242  13.2861395
  63.2424469 197.8508606  12.6046209  63.2483635 196.6263885  14.2322845
  64.1625519 197.1962738  14.3983908  62.6033287 196.5290222  15.5945473
  61.6795273 195.9508209  15.5756140  63.3272781 195.9727325  16.1899872
  62.1795883 197.8090057  16.3239746  63.1138077 198.8230133  16.5573597
  64.1451416 198.6986237  16.2619343  62.7985497 200.0255127  17.2307549
  63.5240211 200.8118286  17.3784027  61.4934387 200.1910553  17.7151222
  61.2187386 201.0486298  18.3113670  60.5431519 199.1647186  17.5459633
  59.6298599 199.2111664  18.1205502  60.8556633 197.9998474  16.8135986
  60.1746559 197.1616669  16.8224773  63.8111916 195.3289032  13.5805683
  64.2205124 195.3594208  12.4049730  63.8692703 194.1779938  14.3171635
  62.8660812 193.5674286  15.2013340  61.8523254 193.7896881  14.8681669
  62.9579582 193.8822479  16.2408276  63.0897331 192.1103973  15.0805807
  62.7680931 191.8008575  14.0861759  62.5950432 191.6234436  15.9209757
  64.5809784 191.9515533  15.1185303  64.8844681 191.0928650  14.5196600
  64.8873444 191.9128723  16.1638756  65.0130081 193.2823486  14.5126743
  65.6618042 193.7908020  15.2258701  65.7704163 193.1297150  13.1749134
  65.1789474 192.5558014  12.2416191  67.0741272 193.4372864  12.9641333
  67.4623642 193.1887512  12.0654688  67.9998169 193.9654083  13.9842739
  69.0027618 194.1065979  13.5814505  68.1511230 192.9973602  15.1856327
  69.0410004 193.3294830  15.7203531  67.2587509 192.9851379  15.8114214
  68.4696503 191.6993408  14.7413540  69.4067383 191.7078857  14.5330582
  67.6974792 195.3593140  14.5473309  66.6497421 195.9337311  14.1785765
  68.4982224 195.9484100  15.4518881  69.1826553 195.3439789  15.8835335
  68.1370316 197.1827240  16.1681156  67.4377594 197.6543579  15.4776993
  67.3155518 196.7191467  17.3240376  66.5052185 196.1025391  16.9351139
  67.9669037 196.0450592  17.8803272  66.6644058 197.7513580  18.1108932
  66.0912323 198.3555756  17.6334057  69.2222519 198.2439728  16.5627346
  69.0790939 198.9757080  17.5244656  70.3880463 198.3974915  15.9256668
  70.9237366 199.1766663  16.2806587  70.8776398 197.7864990  14.6736650
  71.7559586 198.4317017  14.6539001  69.9457550 198.1890869  13.4754105
  69.0599976 197.5582733  13.4005089  69.4759979 199.1585083  13.6416054
  70.4852524 198.0853271  12.0145779  70.5984650 197.0219574  11.8035126
  69.6636200 198.4256744  11.3843489  71.8633423 198.7612457  11.8099852
  72.5660477 198.6028137  12.6280346  72.3765945 198.3628693  10.9347849
  71.6403961 200.2800293  11.6016092  70.9434891 200.6651154  12.3460121
  72.6006546 200.7713013  11.7586536  71.1983032 200.5369415  10.1809416
  70.3293304 200.0640564   9.9775553  71.0577087 201.5131836   9.9634695
  71.8232956 200.2431183   9.4439526  71.7283020 196.4839935  14.6325426
  71.8158417 195.8770752  13.5839643  72.3824692 196.0660858  15.7179604
  72.1084061 196.4377594  17.0872536  71.0393448 196.3031616  17.2518539
  72.3893280 197.4665833  17.3124409  72.6703796 195.3033295  17.9463806
  71.8300705 194.7339325  18.3435917  73.2740784 195.7672577  18.7263870
  73.3929977 194.3943481  16.9976330  74.3383484 194.0209045  17.3912754
  72.6970062 193.5976715  16.7349720  73.5356598 195.1889954  15.6701384
  73.5248032 194.4138184  14.9039230  74.9320679 195.9255981  15.5895958
  75.9450378 195.2838593  15.4025822  74.9605865 197.2400208  15.8891401
  74.0734558 197.7196960  15.8342333  76.1714020 198.1220551  16.0964108
  76.9234238 197.9469452  15.3270569  75.7228851 199.5425415  15.9894838
  75.1038437 199.6815491  15.1031618  75.1694870 199.8777161  16.8667049
  76.8906479 200.5060425  15.8772879  77.6820679 200.1977081  16.5604324
  77.2921143 200.4596558  14.8649778  76.6270828 202.0694122  16.1825542
  76.2695389 202.2280273  17.1999569  77.4782333 202.7177277  15.9743738
  75.5489349 202.4098969  15.1146765  75.7324753 201.7243347  14.2873783
  74.5992966 202.0826263  15.5379925  75.6316223 203.8281250  14.6625423
  76.5342484 203.9217072  14.2191343  74.8018951 204.1093750  14.1599865
  75.5441284 204.4576111  15.4475269  76.8569489 197.7957764  17.4121742
  78.0901184 197.7490387  17.4358234  76.0885696 197.5977631  18.5279465
  75.0979233 197.5594482  18.3349171  76.7199783 197.5477448  19.9040413
  77.5595398 198.2428894  19.9037113  75.7821426 197.8710175  21.0455208
  76.4239197 198.1054535  21.8947945  75.0456161 199.1304321  20.7064133
  74.2280807 198.9057922  20.0213680  74.6772919 199.5173950  21.6565170
  75.6069336 199.9639435  20.2841835  74.8573685 196.6752014  21.4924183
  75.4868927 195.8656616  21.8618011  74.0503464 196.9731903  22.1617546
  74.3404617 196.3352814  20.5949993  77.4300995 196.1980133  20.1467896
  78.0823517 196.0959930  21.2345600  77.3722687 195.1947784  19.2951012
  76.9756851 195.3943787  18.3879147  77.7022781 193.7763367  19.5752087
  77.6543198 193.2016602  18.6502419  79.1605988 193.5999603  20.1740036
  79.1822586 193.9620209  21.2018890  79.3200302 192.5229492  20.1215248
  80.3252487 194.2476654  19.4576340  81.2961121 195.0120697  20.0416222
  81.3416290 195.3847504  21.0542622  82.2230835 195.3081512  19.0591774
  83.0421143 195.8712311  19.2386990  81.9420547 194.6739044  17.8812008
  82.5856018 194.6813965  16.6526089  83.5158081 195.2079926  16.4982872
  82.0105591 194.1276703  15.5198450  82.5493393 194.1869659  14.5857172
  80.7623444 193.4056549  15.6696920  80.2932281 192.9225616  14.8253269
  80.1480560 193.3853455  16.9709148  79.1806564 192.9351654  17.1378841
  80.7247543 194.0200043  18.0752468  76.6403351 193.0067291  20.4810276
  75.4414215 193.2046204  20.2141552  77.1341171 192.1637726  21.4335861
  78.1415024 192.1297455  21.4978962  76.5297318 191.4611511  22.5584030
  77.3878479 190.8896484  22.9121265  75.5193329 190.3807526  22.1441498
  75.0104446 190.0463562  23.0482063  74.8045120 190.8407440  21.4618530
  76.1630783 189.1596222  21.4626598  75.4242020 188.6389313  20.8535213
  76.8400497 189.4849243  20.6727276  76.8052063 188.2149048  22.5090389
  77.6056671 188.5907898  23.2724171  76.4313736 186.9453888  22.6107521
  76.8034210 186.3339386  23.3233700  75.7974854 186.4901581  21.9696178
  76.1245422 192.4047699  23.7424355  75.8255081 193.5823059  23.5624485
  76.0022888 191.7580109  24.9003410  76.1690826 190.7618713  24.9019890
  75.8908768 192.2747040  26.3027210  75.4618149 191.4112549  26.8111172
  77.3212814 192.4664612  26.9707851  77.3053818 192.9028015  27.9695129
  77.6741943 191.4380188  27.0472431  78.4081268 193.1250763  26.1697369
  78.5586472 194.3712463  26.3800869  79.2475357 192.5185852  25.4406185
  74.9366455 193.4490204  26.5545712  75.1656036 194.5327454  26.0820618
  73.9470520 193.2750702  27.4563751  73.7857666 192.3222809  27.7501183
  73.1399078 194.4528656  28.0426559  72.2396469 194.0370941  28.4951687
  73.9341354 195.1574707  29.2393761  73.2210541 195.8094788  29.7438354
  74.1810303 194.3173828  29.8885345  75.2724152 195.8135986  28.9575100
  75.8507996 195.7460785  29.8789272  75.8948822 195.3024445  28.2231007
  75.3881149 197.3706512  28.6705017  74.6275864 197.9336090  29.2115822
  76.3347626 197.7469330  29.0582619  75.3050461 197.6974335  27.1900139
  74.4042587 197.9893494  26.8386345  76.3491516 197.7618256  26.3849525
  77.5292358 197.3794250  26.7927246  77.6674805 196.9920959  27.7152061
  78.2919922 197.2490082  26.1436501  76.1399841 198.2287903  25.1528816
  76.9555511 198.3122711  24.5629807  75.2675247 198.6450958  24.8603058
  72.4884644 195.4907227  27.0541649  72.1811142 195.1585999  25.9032097
  72.1545639 196.6890259  27.5379353  72.3536606 196.8368683  28.5170212
  71.2536697 197.6998901  26.9982948  71.0729370 198.4192047  27.7970676
  72.0063705 198.4347839  25.8844414  72.4369125 197.7587891  25.1456871
  71.3844910 199.1797180  25.3880291  72.9157333 198.9120026  26.2497330
  69.8053665 197.3256378  26.6290874  68.8414764 197.8267670  27.1621342
  69.5983505 196.5088959  25.5834370  70.3633270 196.0079956  25.1544800
  68.3386841 196.3218842  24.8594189  67.8940964 197.3112030  24.7511959
  68.5615921 195.8876038  23.4013882  67.5999680 195.6390228  22.9524155
  68.8294830 196.7859955  22.8453064  69.5892410 194.7850800  23.2723351
  69.1314011 193.4497986  23.3683262  68.0979996 193.1629028  23.4954491
  69.9993591 192.4049377  23.1775570  69.7697525 191.3513641  23.2380543
  71.3478775 192.6401672  22.8440094  71.9831467 191.8086395  22.5767937
  71.7778702 193.9993134  22.7489986  72.7979355 194.1838989  22.4460163
  70.9236755 195.0955658  22.9825821  71.2145004 196.1345825  22.9348621
  67.2980881 195.4447784  25.6324768  66.2271729 195.1564789  25.1186390
  67.5471878 195.1059570  26.9535084  68.4560089 195.3091583  27.3444786
  66.5483093 194.5819702  27.9131393  66.0466766 193.7665710  27.3920078
  67.1340103 194.0876007  29.2712574  66.6528091 194.5963440  30.1065559
  66.7817459 193.0567169  29.3071480  68.6831055 194.1403351  29.4019089
  68.9166336 193.3179626  30.0781212  69.0960159 193.8592834  28.4330826
  69.3152618 195.5259094  29.8970394  70.3978653 195.4006958  29.8774166
  69.0535507 196.2311707  29.1082268  68.8766022 195.9455566  31.2210751
  68.6647110 195.2030334  31.8721180  68.9853973 197.1056061  31.7499180
  69.3307571 198.2110138  31.1523190  69.7361298 198.2034607  30.2272682
  69.1823959 199.0827942  31.6402740  68.6632309 197.1700745  32.9900284
  68.4449005 196.3745270  33.5727196  68.6567688 198.0434113  33.4973106
  65.3351440 195.5098267  28.0958786  64.2309875 195.0463257  28.3558540
  65.4968491 196.8752289  28.0314121  66.4455338 197.2047882  27.9241753
  64.3691025 197.8274384  27.9389610  63.7023659 197.5448151  28.7536354
  64.9008408 199.2629547  28.2399426  65.6624374 199.5553131  27.5170364
  64.0562897 199.9477081  28.1628494  65.6438751 199.3989258  29.6128120
  64.8777161 199.2903137  30.3804760  66.2976379 198.5880432  29.9339905
  66.3181152 200.7796631  29.8320427  67.4869308 200.9606934  29.4882832
  65.6195679 201.7875519  30.2977848  65.9607162 202.7156525  30.0920124
  64.6562653 201.6784058  30.5810680  63.5914268 197.7804871  26.6258755
  62.3776398 197.8373413  26.5845795  64.2677460 197.4802704  25.5131073
  65.2766418 197.4726105  25.5596714  63.6182594 197.3500671  24.2132607
  62.9271240 198.1738281  24.0347576  64.5970688 197.4594269  23.1390514
  65.0241089 198.4620514  23.1609097  65.4353027 196.7695312  23.2364788
  63.9962654 197.3211365  21.7517128  63.5188026 198.3660736  20.9930077
  63.4847488 199.3634186  21.4060097  63.0639343 197.8468170  19.8025074
  62.7582932 198.4539185  19.0554428  63.1390381 196.4331360  19.7804317
  62.6172638 195.4667816  18.8750725  62.0352478 195.7732697  18.0184975
  62.8267822 194.1150970  19.1764927  62.4712944 193.3426514  18.5106335
  63.5547180 193.7839508  20.3305111  63.7816086 192.7359772  20.4597206
  64.0150528 194.6852722  21.2763996  64.4920883 194.2985382  22.1648083
  63.7842026 196.0700989  21.0185318  62.7390060 196.1145630  24.0838680
  61.6705093 196.1647339  23.5218754  63.1401939 194.9765167  24.6975651
  64.0890579 194.9292145  25.0403805  62.3150253 193.7546692  24.6526508
  62.0726814 193.5861206  23.6033840  63.0890274 192.4952240  25.1851482
  63.6594391 192.7398682  26.0811844  62.3293228 191.7604675  25.4517574
  63.9122314 191.8480530  24.1374531  65.2386780 192.0511169  23.8692532
  65.9101410 192.7944641  24.2729416  65.5758743 191.3417511  22.7168503
  66.4693069 191.4113007  22.2509689  64.4987640 190.8146362  22.0919266
  64.3186722 190.2265778  20.7939606  65.0914459 190.1345520  20.0451298
  62.9866867 189.8615265  20.4391117  62.6905746 189.3421936  19.5396614
  61.9587440 190.1061707  21.2949181  60.9630928 189.8118134  20.9975529
  62.1224365 190.7161255  22.5869579  61.2270737 190.9990997  23.1204872
  63.4414139 191.0591736  22.9841309  60.9202347 193.9755554  25.3344631
  59.8896484 193.6805420  24.7277241  60.8570023 194.6543579  26.4961834
  61.7379417 195.0435944  26.8003922  59.5899696 195.1668396  27.1188202
  58.9384766 194.3086548  27.2836971  59.8974152 195.7534485  28.4968433
  60.7076454 196.4781799  28.4168453  59.0226517 196.2003021  28.9693012
  60.4332924 194.7402649  29.4830170  59.7358055 193.9026642  29.4777966
  61.4573479 194.4273682  29.2792912  60.4274559 195.4008026  30.8988781
  60.8110809 196.5708160  31.0899506  59.9073334 194.7256622  31.9450150
  60.0433197 195.1358643  32.8578873  59.7291451 193.7340851  31.8732986
  58.8803558 196.1478882  26.2438297  57.6761398 195.9803772  26.1559601
  59.5999870 196.9888153  25.4894810  60.5937157 196.9220886  25.6572475
  59.1002693 198.0531158  24.6693535  58.3087006 198.5372467  25.2413197
  60.1880188 198.9927826  24.3203106  60.8904877 199.0694580  25.1502266
  60.7853622 198.6862335  23.4616413  59.7493820 200.3935852  24.0148945
  59.2166138 200.3747559  23.0641575  59.1515350 200.8507385  24.8033714
  60.9606171 201.3037720  23.6635475  61.6960106 201.4922485  24.4457092
  61.5246201 200.7000275  22.9525661  60.7270508 202.6931458  23.0218430
  61.5799751 202.9219666  22.3828926  59.7716866 202.6976166  22.4970951
  60.6306801 203.7657318  24.0708809  61.4976158 203.9590607  24.5516586
  60.4050903 204.6514893  23.6411552  59.9483490 203.5028076  24.7675819
  58.4982147 197.5258636  23.3489056  57.4324036 198.0168457  22.9606323
  59.0773468 196.4824371  22.8026543  59.9390755 196.1617737  23.2206192
  58.6214447 195.7898102  21.5822754  58.3460426 196.5178528  20.8192520
  59.7204475 194.9184875  21.0668678  60.5386848 195.5764008  20.7740421
  60.0906067 194.3269196  21.9042053  59.3967514 193.9316254  19.9450970
  59.3818779 194.3878326  18.6395168  59.6467667 195.4025269  18.3813553
  59.0465965 193.4470520  17.6154537  59.0771942 193.7778625  16.5878162
  58.7682228 192.0633850  17.9507790  58.4122276 191.1558380  17.0148525
  58.2137947 191.5114746  16.1455173  58.7533646 191.6738281  19.2892609
  58.5243568 190.6430206  19.5159721  59.0082703 192.5894775  20.3033886
  58.9172859 192.2651520  21.3295174  57.3318405 195.0302124  21.9849396
  56.3137245 195.3394928  21.3666973  57.3684998 194.2924805  23.1259060
  58.2706032 194.2709656  23.5796108  56.1548843 193.6924133  23.6743336
  55.7918091 192.9155884  23.0014095  56.6809731 192.9305878  24.9734402
  57.3402634 192.1273499  24.6444302  57.2757950 193.5656128  25.6299629
  55.5832329 192.3159180  25.8473682  54.9481201 193.1630249  26.1064873
  54.9740715 191.5939789  25.3034554  56.1225357 191.6589813  27.1328850
  56.1401405 190.4239197  27.2166862  56.5490150 192.4542542  28.1048450
  56.7601013 191.9678650  28.9644852  56.1820183 193.3951263  28.1178551
  55.0826683 194.7322693  23.9648705  53.9191017 194.4630890  23.6402664
  55.3889236 195.8696136  24.5889587  56.3685684 196.0070953  24.7926502
  54.4169197 196.9159851  24.9029522  53.5842972 196.4083252  25.3898926
  54.9517670 197.9108582  25.9433098  55.5102348 197.3191223  26.6686172
  55.6608391 198.5616150  25.4316235  53.9530220 198.8036041  26.6804295
  53.3285561 199.3376617  25.9642391  53.2822456 198.2600098  27.3457623
  54.6606636 199.8966675  27.5218410  55.2456093 199.3576355  28.2670841
  55.2461052 200.4824219  26.8131409  53.5830345 200.6961975  28.2388115
  53.0342712 201.3665619  27.5773144  53.0187111 200.0345459  28.8959713
  54.1774292 201.6490173  29.2461948  54.9564552 202.1682739  28.8672523
  53.4958000 202.1773987  29.7718449  54.7013168 201.1485138  29.9498539
  53.8781929 197.6553345  23.6230145  52.7010422 198.0865631  23.6442947
  54.6620483 197.7572784  22.5245876  55.6385040 197.4996643  22.5412045
  54.2889824 198.4160767  21.2278252  53.5848503 199.2177429  21.4505711
  55.5716591 199.1182251  20.7129116  55.8758049 199.6894836  21.5899830
  56.3061676 198.3417664  20.4990940  55.3413467 200.0127869  19.4471626
  54.7765388 199.4913483  18.6743755  54.7512321 200.9055328  19.6541996
  56.6561356 200.5661774  18.8218231  57.4333572 199.8021698  18.8394356
  56.4189186 200.7451630  17.7731152  57.1878395 201.8460388  19.4108620
  56.7098083 202.0963898  20.2646255  58.1207123 202.5973663  18.8440399
  58.6183586 202.2651672  17.6697731  58.1989594 201.5185547  17.1342659
  59.1611099 202.9376373  17.1469746  58.5254898 203.7616272  19.3867893
  58.2085037 204.0282593  20.3079472  59.1736145 204.3507538  18.8838272
  53.5906219 197.5532227  20.1683865  52.5191994 197.9913177  19.6233997
  54.0018272 196.2970276  19.9622459  54.8363266 195.9832764  20.4368782
  53.3087540 195.2460175  19.1846886  53.1070023 195.6727753  18.2022114
  54.4284554 194.1831665  18.9951057  55.2607422 194.7511902  18.5794907
  54.6916656 193.7349243  19.9531746  54.0308113 193.0960999  18.0256977
  53.1551933 192.5656281  18.3998547  53.7849922 193.5748901  17.0778389
  55.1817932 192.1160736  17.8247204  56.0110321 192.6169128  17.3251076
  55.5241508 191.7107849  18.7768974  54.6679153 190.9457855  16.9456043
  55.2914848 190.0619354  17.0800552  53.6649513 190.6266785  17.2290344
  54.6899605 191.2231445  15.5002623  55.6286392 191.3888550  15.1663094
  54.3272400 190.4179535  15.0101357  54.0919533 192.0026398  15.2660131
  52.0190125 194.7369537  19.7553101  50.9829521 194.8748779  19.0859699
  52.0278168 194.2116852  20.9503441  52.9284554 194.1840057  21.4066181
  50.8465118 193.5969696  21.6125813  50.2061005 193.2411957  20.8054829
  51.1493912 192.3296051  22.4580364  51.5200882 192.6362305  23.4361305
  50.2510147 191.7211304  22.5618401  52.2737885 191.4752045  21.8476562
  52.0474854 190.6462555  20.7171535  51.0449371 190.6521606  20.3155785
  53.1399841 189.8160248  20.2341137  52.9976273 189.1293488  19.4127693
  54.3965836 189.8050385  20.8675995  55.2312012 189.2345734  20.4876328
  54.5351486 190.5826569  22.0353394  55.4767647 190.5566559  22.5636292
  53.5193367 191.4197083  22.4928970  53.6510162 192.0295563  23.3744564
  49.9457016 194.5622253  22.4068031  49.0349007 194.0980835  23.0680523
  50.1582184 195.8467712  22.2383270  50.9273529 196.2203522  21.7007675
  49.2624702 196.8570862  22.7853184  49.4788284 196.9395294  23.8504467
  49.5578194 198.2183228  22.0779057  50.6035461 198.4701385  22.2543831
  49.4316940 198.1274414  20.9990482  48.8225746 199.4845886  22.5633392
  49.0760880 200.2066040  23.7463036  48.1978416 201.1792908  23.7781029
  48.0294571 201.8559113  24.6028671  47.3988724 201.0809174  22.6530933
  46.6416283 201.7034149  22.4098454  47.8455925 200.0772400  21.8465252
  47.4904327 199.7530823  20.8794765  47.7575760 196.6250610  22.5298843
  46.9109421 196.6934204  23.4722366  47.3930016 196.2137756  21.3180714
  48.1561584 195.9873047  20.6964550  46.0457993 195.8550262  20.8645630
  45.3715515 196.6516724  21.1789532  46.0205460 195.8759918  19.3253384
  46.7859001 195.2065277  18.9327202  45.0127296 195.5690002  19.0457726
  46.3663292 197.6223145  18.8685875  46.5679169 197.4123383  17.5646839
  45.5075035 194.5278625  21.3815441  44.3818703 194.1313477  21.1055851
  46.1079063 193.8651276  22.3080006  47.0571213 194.1128235  22.5482883
  45.6294746 192.7411652  23.1425362  45.3082123 191.9479675  22.4674511
  46.8303185 192.1353302  23.9226341  47.2804832 192.8838196  24.5747166
  46.5328560 191.3348236  24.5999756  47.4214401 191.6357117  23.1551304
  44.4786949 193.2386780  24.1107216  43.5485992 192.4775238  24.3836212
  44.4863548 194.5131073  24.4482403  45.2249794 195.1378326  24.1579800
  43.3727875 195.1929932  25.0858517  43.1774597 194.6681061  26.0209694
  43.8266525 196.6883850  25.3216133  43.0789566 197.2386017  25.8928528
  44.7434387 196.6617889  25.9105949  44.0211868 197.3616180  24.1256161
  44.6314430 198.0883636  24.2706299  41.9805412 195.1934052  24.4429531
  40.9882011 195.5219421  25.1057644  41.9214439 194.7931824  23.1596794
  42.8105774 194.6215363  22.7123775  40.6548576 194.4677277  22.4896698
  39.8130150 194.9838409  22.9512177  40.7030563 194.6705170  20.9632568
  41.3574371 193.8985748  20.5583038  39.7269821 194.5951080  20.4839916
  41.2749939 196.0313568  20.6289997  42.2947693 196.0930023  21.0089397
  41.2407532 196.2456512  19.0781860  40.2188339 196.3393402  18.7107658
  41.8087387 197.1610260  18.9121284  41.7234955 195.3973389  18.5929718
  40.4147377 197.1261292  21.1848984  40.5206947 197.1044464  22.2695236
  40.7590027 198.1083679  20.8611717  39.3585815 196.9530792  20.9782696
  40.1363754 193.0410767  22.9276695  38.8874435 192.7868195  22.9583778
  40.9426270 192.1177063  23.3678379  41.9263954 192.3457794  23.3512402
  40.6845703 190.7759399  23.8933239  39.6403008 190.5204010  23.7136173
  41.5253601 189.5896912  23.2589989  40.9266243 188.7021027  23.4634380
  41.7653313 189.7220154  21.7146053  42.3907547 190.5668030  21.4260082
  42.2138290 188.7995300  21.3458691  40.8005142 189.7415314  21.2078037
  42.7516174 189.4764404  23.8096676  43.2951355 188.8468933  23.3302345
  40.8283386 190.6935883  25.4647942  41.1714401 191.6496735  26.1833363
  40.4268150 189.5464935  26.0251446  40.1927299 188.7749939  25.4167938
  40.5246620 189.3128662  27.4741421  40.2309608 190.2001801  28.0349636
  39.6075668 188.1484070  27.8518963  39.7449608 188.0642853  28.9299259
  38.5787964 188.3990479  27.5932274  39.9642677 186.9379883  27.2257290
  39.2329826 186.3371124  27.0651550  41.9301338 188.9721222  28.0689926
  42.2892227 189.6407013  29.0334702  42.6748619 188.0560608  27.4475517
  42.2678337 187.4925537  26.7148285  44.1326485 187.8790283  27.7354031
  44.1896896 187.4499207  28.7357597  44.6958160 186.9061279  26.7241955
  44.7228012 187.4034729  25.7546539  45.7365608 186.6446991  26.9155197
  43.9330444 185.6280365  26.5305233  43.3156204 185.2682648  25.4055462
  43.4630775 185.7606812  24.4557095  42.7255135 184.0864410  25.5009766
  42.4559746 183.5573273  24.6839714  42.7472496 183.6259003  26.8031559
  42.2511978 182.4628448  27.3986607  41.7549133 181.7623138  26.7434082
  42.5756187 182.2243347  28.7360859  42.2428551 181.2777100  29.1355629
  43.3586578 183.1305237  29.4258766  43.5738144 182.9438629  30.4676380
  43.7447891 184.3668671  28.8632126  44.2458038 185.0862274  29.4940052
  43.5646439 184.6032104  27.5168781  45.0406189 189.1538086  27.8098602
  44.8310242 190.0880890  26.9870033  46.0332298 189.1643066  28.7052364
  46.3600960 188.1707153  29.7332478  46.4443474 187.1846924  29.2763367
  45.5723190 188.1566620  30.4864483  47.6330605 188.5668030  30.3722305
  48.4731750 188.1294098  29.8327827  47.6317558 188.3202515  31.4339828
  47.5426064 190.0695801  30.1784897  48.5362358 190.5176392  30.1719761
  46.9560661 190.5721436  30.9475842  46.9640198 190.2933197  28.8108177
  46.3735161 191.2074585  28.7494984  48.0295219 190.2994232  27.6578655
  48.2439537 189.2877502  26.9530029  48.9070778 191.3583221  27.5174637
  48.5159035 192.6674500  28.0890541  48.9833488 192.7253113  29.0720348
  47.4401741 192.8360748  28.0393906  49.1645088 193.7453308  27.2484665
  49.4397736 194.5697479  27.9062366  48.4845390 194.1448517  26.4960499
  50.2886581 192.9863434  26.5652943  51.1690254 192.9079590  27.2031860
  50.4747505 193.4556580  25.5992622  49.8399506 191.5120544  26.4178429
  49.3295135 191.3802795  25.4638042  51.0072060 190.4482574  26.4227409
  51.4823837 190.1097565  25.3598900  51.3798561 189.9113770  27.6002579
  51.0288315 190.2597809  28.4808807  52.5045929 189.0466614  27.7765388
  53.3594551 189.4417419  27.2276974  53.0039482 189.0756836  29.2365780
  53.7989120 188.3409729  29.3643379  53.5489388 190.0124817  29.3527832
  52.0185471 188.8389130  30.3931599  51.4728813 189.7371979  31.2862511
  51.6627197 190.7997131  31.2485886  50.5525551 189.0879974  32.0940475
  49.9839859 189.6129761  32.7430725  50.5201263 187.7241821  31.8927536
  49.7826691 186.6989136  32.5100899  49.0088692 186.9805145  33.2088966
  50.1291122 185.3821411  32.2153168  49.5978966 184.5285339  32.6097450
  51.1916008 185.1313629  31.3550491  51.3462067 184.1065216  31.0514126
  51.7902374 186.1348419  30.5946655  52.3701782 185.8587799  29.7264175
  51.4705391 187.5115509  30.8602409  52.2087212 187.6178741  27.2449169
  53.1301193 186.8650818  26.8703823  50.9427643 187.1816254  27.2355537
  50.2390251 187.7534180  27.6804371  50.6081429 185.8388214  26.7971897
  51.1800537 185.1468201  27.4153767  49.0782280 185.4865723  27.0501804
  48.8178520 185.7062836  28.0855694  48.5840569 186.1237640  26.3167763
  48.6701164 183.9955292  26.8192749  49.1480980 183.6671753  25.8963318
  49.0216942 183.0579529  27.9938469  48.4410019 183.2070618  28.9041557
  48.8048782 182.0276489  27.7117634  50.0921059 183.0982208  28.1956081
  47.1422501 183.8965454  26.5548935  46.7891502 184.3642273  25.6358299
  46.7411880 182.8832550  26.5322781  46.6104851 184.3664856  27.3822289
  51.0159645 185.6309357  25.2903938  51.5859909 184.6612854  24.8515129
  50.7717972 186.6297760  24.4736576  50.2992210 187.4389496  24.8505268
  51.0964127 186.6015320  23.0486374  50.6730652 185.6683807  22.6770096
  50.3341026 187.6856689  22.2827911  50.7453079 188.6620483  22.5391254
  50.6061058 187.4639740  21.2508144  48.8493805 187.6022949  22.3867054
  48.0574226 186.7105408  21.6464596  48.5784378 186.0206451  20.9991665
  46.6487236 186.6372070  21.7569141  46.1590309 185.9244843  21.1099014
  46.0398674 187.4812012  22.6917648  44.6844940 187.5457153  22.7763157
  44.2981071 187.2045593  21.9664288  46.8229256 188.3341522  23.5267792
  46.4050827 188.9685211  24.2944946  48.2192535 188.4283142  23.3355598
  48.7768555 189.1016846  23.9696312  52.5902367 186.5393372  22.7609119
  52.9340591 185.8325958  21.8394547  53.4759026 187.0356445  23.6663895
  53.1027489 187.6977997  24.3315334  54.8997726 186.8542938  23.4367752
  55.1500702 187.2879028  22.4685612  55.6269379 187.5728607  24.5964050
  55.4387207 187.0634918  25.5415001  56.6800575 187.6317444  24.3214989
  55.1205330 188.9307404  24.7588615  55.3869629 189.2924652  25.6072521
  55.3465004 185.3715668  23.5162926  56.2040901 184.9466705  22.7674541
  54.6854553 184.5452271  24.3210907  53.8816872 184.9585114  24.7719212
  54.8511200 183.0861969  24.4528790  55.9328423 182.9590454  24.4954472
  54.3170242 182.5183563  25.7985439  53.2413940 182.4563141  25.6334057
  54.6983490 181.5201416  26.0135670  54.6120110 183.3573761  27.0824718
  54.3641624 184.3916168  26.8437004  53.6810303 182.9880829  28.2486610
  53.8846893 181.9874725  28.6300220  53.9178238 183.6794891  29.0573463
  52.6511192 183.1159210  27.9154282  56.0244675 183.3069153  27.6278667
  56.6687698 183.6488495  26.8178883  56.2309265 183.9845734  28.4562702
  56.2805214 182.3116760  27.9912682  54.3214722 182.3397369  23.2312965
  54.3926353 181.1279297  23.1443672  53.9180374 183.0375366  22.2261925
  53.7858772 184.0097504  22.4658012  53.5563049 182.5260162  20.8768463
  53.8662567 181.4823303  20.8242931  52.0139122 182.4461365  20.7384586
  51.5101433 183.4079895  20.8342419  51.7299309 182.0053101  19.7828808
  51.3375435 181.4550934  21.6655350  51.0076485 181.9203949  22.9518833
  51.1687737 182.9750977  23.1193848  50.4998360 181.0309906  23.9151859
  50.3435555 181.4098358  24.9144135  50.1754379 179.6538544  23.5319767
  49.6252747 178.7864990  24.3997726  49.4738579 179.2342377  25.2353611
  50.5565414 179.2339172  22.2447910  50.2877846 178.2673035  21.8449917
  51.1123238 180.1099091  21.2790031  51.3251724 179.7556305  20.2812176
  54.2091751 183.3610229  19.7672462  54.1889420 182.9079895  18.6242256
  54.7529907 184.5120087  20.0244675  54.9029655 184.7710571  20.9890919
  55.4983406 185.2362976  19.0255318  54.8720627 185.3598328  18.1420059
  55.8296165 186.6098175  19.6859150  54.8838425 187.1259308  19.8509541
  56.3055420 186.5107880  20.6615105  56.7513084 187.3374023  18.7222233
  56.5657730 187.2039032  17.4820843  57.7165031 188.0043640  19.2073269
  56.7388992 184.4913330  18.5241146  57.6563759 184.2137604  19.2998028
  56.7139473 184.1392975  17.2088051  55.9302902 184.3106232  16.5951004
  57.8702316 183.5549316  16.5611248  58.0299568 182.5593414  16.9751396
  57.6926193 183.4078827  15.0505991  57.6652298 184.3572998  14.5158625
  58.4527397 182.7425385  14.6411657  56.7868118 182.8126526  14.9351845
  59.2272720 184.2711334  16.7670193  60.1852303 183.5375824  16.9801369
  59.3849754 185.6040802  16.6551628  58.5308075 186.1418915  16.6199303
  60.6107101 186.3035278  16.8108120  61.4297028 185.9063873  16.2111149
  60.3532104 187.7351379  16.3878155  59.4023743 188.0918427  16.7837658
  61.1191635 188.4108734  16.7683620  60.2193260 187.9706726  14.8926325
  59.3391953 187.3621521  14.6848536  60.1359978 189.0424805  14.7126617
  61.3856812 187.4613037  14.0550852  62.5032616 187.0728607  14.5127802
  61.0768700 187.2197876  12.8402262  60.9945526 186.2386169  18.2760334
  62.1696396 185.9079132  18.6067829  60.1233177 186.4809875  19.3013611
  59.2191467 186.8365936  19.0254517  60.4646759 186.2599945  20.7715302
  61.3364639 186.8920898  20.9404793  59.2839546 186.5511627  21.6777897
  58.4109573 185.9805450  21.3609753  59.5848465 186.2438202  23.1703758
  60.5118713 186.7664337  23.4061794  58.7131538 186.4490662  23.7917690
  59.6913414 185.1740723  23.3503532  58.9209175 187.9295807  21.5525837
  58.3401489 187.9223633  20.7882137  60.9651871 184.8079224  21.0374374
  62.0035973 184.6044922  21.5832195  60.2414856 183.8466949  20.4547691
  59.4135056 184.1299133  19.9504528  60.5599442 182.3947601  20.5755329
  60.5945168 182.1980133  21.6470718  59.3965988 181.5399933  20.0173626
  59.1546822 181.9609680  19.0414734  59.8424225 180.5460968  20.0562801
  58.1110382 181.5669403  20.8972187  57.7412949 182.5314941  21.2451057
  56.9265022 180.9311371  20.1899185  57.1934967 179.9019012  19.9501305
  56.0437775 180.9681854  20.8282928  56.7188339 181.2997437  19.1853752
  58.3397255 180.7541809  22.1591721  59.2085342 181.0772552  22.7326641
  57.5152664 180.8131256  22.8697300  58.4355087 179.6882477  21.9524746
  61.9419327 182.0685730  19.9127254  62.6495514 181.1707611  20.4136906
  62.2252007 182.7930145  18.8066292  61.5721016 183.4156342  18.3528709
  63.5792084 182.7438812  18.2465744  63.7668839 181.6708527  18.2079468
  63.7808685 183.4652405  16.9046326  63.3606262 184.4671631  16.9919472
  64.8552856 183.6002045  16.7800751  63.1652527 182.6352692  15.7716675
  63.5483437 181.6148071  15.7691355  62.0873756 182.5910492  15.9276237
  63.3796463 183.3017883  14.0947828  65.0842819 182.7822266  13.9633198
  65.3841095 181.9963837  14.6566114  65.2355957 182.5289307  12.9140148
  65.7838058 183.5854187  14.1949806  64.6180878 183.2332153  19.2082539
  65.5761642 182.5143585  19.4831238  64.4128342 184.4520264  19.7648144
  63.5942535 185.0092010  19.5658665  65.4070435 185.0199127  20.6852322
  66.3600388 185.0737152  20.1589088  65.0644684 186.4637909  21.0136261
  64.5909500 186.9277496  20.1483974  64.3292694 186.3354340  21.8080540
  66.1984177 187.4004211  21.6120243  65.7656937 188.2577057  22.1277008
  66.7318497 186.8273315  22.3703804  67.3091736 187.7639008  20.5609703
  67.1667862 187.4255066  19.3801308  68.3226166 188.3723602  20.9664059
  65.6689377 184.2138367  21.9417439  66.8440170 184.1040344  22.3704376
  64.6544113 183.6128387  22.5760117  63.7768402 183.7223358  22.0881786
  64.7990646 182.7445984  23.7383404  65.2228622 183.2050323  24.6308079
  63.3828468 182.2946320  24.2078800  62.7287712 182.0112457  23.3832684
  63.4484978 181.4949951  24.9457016  62.6772575 183.5014801  24.9226685
  63.2087021 183.9563599  25.7585888  62.5465508 184.3221893  24.2173576
  61.3615799 183.0200958  25.4029102  60.7573242 183.8753815  25.7053165
  60.7887726 182.6180420  24.5672379  61.5005264 182.0355530  26.5435944
  62.3714638 182.0513458  27.0547829  60.5266151 181.4227905  27.1503448
  59.3216782 181.3837128  26.7202435  59.1088333 181.8010559  25.8254700
  58.6757202 180.7999878  27.2322102  60.7258263 180.6796875  28.1983452
  61.6776161 180.6107178  28.5291710  59.9699593 180.6078644  28.8643875
  65.6992569 181.5391846  23.3697987  66.6262283 181.2218323  24.1019020
  65.5013657 180.8752289  22.2130451  64.5923157 180.9059296  21.7739658
  66.3910675 179.7984924  21.7186928  66.5803909 179.1374512  22.5644436
  65.6398697 179.0338440  20.5464993  65.2675400 179.7762146  19.8405495
  66.5543442 177.9870148  19.9121628  66.7186661 177.1640778  20.6077805
  66.1950226 177.5558777  18.9777603  67.5442886 178.4048920  19.7291546
  64.4135666 178.1132812  20.9182281  63.5594444 178.7604370  21.1176510
  64.1838989 177.5077515  20.0414772  64.6837921 177.5257721  21.7956715
  67.7647629 180.3744965  21.4204445  68.6851654 179.7280884  21.8940697
  67.9002228 181.5306091  20.6943645  67.0492859 181.9260712  20.3207150
  69.2060547 182.2062683  20.3450012  69.8045807 181.6253052  19.6433315
  68.9872589 183.6102753  19.7492409  68.0766678 184.1289520  20.0491028
  69.8681412 184.2125549  19.9715328  68.9504700 183.5434570  18.2238865
  69.9098282 183.1531372  17.8842068  68.0588760 182.9972992  17.9159069
  68.7698441 184.9357758  17.6402645  67.7085342 185.1825714  17.6688251
  69.3642883 185.7185516  18.1114235  69.0595474 184.8578491  16.1260223
  69.9662399 184.2653809  16.0035515  68.2334442 184.3920593  15.5887117
  69.2739487 186.2238159  15.4913568  70.1785355 186.5947113  15.7448597
  69.3079529 186.1961060  14.4823074  68.6665039 186.9589691  15.8240070
  70.0740891 182.3319244  21.6242695  71.2219925 181.9327087  21.6930351
  69.4768600 182.9253693  22.6846561  68.5656357 183.3096008  22.4794044
  70.1702728 183.1681976  23.9823303  71.0619888 183.7424927  23.7310390
  69.2114639 184.0518341  24.8321114  68.8624802 184.8216705  24.1438828
  68.3405685 183.4571228  25.1077213  69.9183197 184.5859222  26.0417194
  70.3325119 183.7433167  26.5953922  70.7596817 185.2042999  25.7289486
  69.0497131 185.4440613  26.9020576  69.6247787 185.7363129  27.7806854
  68.8384552 186.4260101  26.4786644  67.7792511 184.7914429  27.3371353
  67.7611847 183.7829742  27.2846832  66.7727127 185.3102417  27.9433556
  66.6995697 186.6347046  28.2376175  67.5472794 187.1489563  28.0451736
  65.8049545 187.0495300  28.4559841  65.7875443 184.5184326  28.3047638
  65.9694748 183.5251617  28.2841492  64.9255600 184.9053650  28.6616459
  70.5943985 181.9397583  24.6874027  71.6244049 181.9564667  25.2979698
  69.8755112 180.7723083  24.5515060  69.0169907 180.7330475  24.0209465
  70.4503174 179.4468994  24.8719120  70.8669968 179.4764557  25.8786907
  69.2777634 178.3945312  24.9262371  68.5098114 178.5411987  25.6857338
  68.8442917 178.4477234  23.9275513  69.7968750 176.9518738  25.1459045
  68.9957962 176.2159576  25.0765800  70.4537506 176.6711578  24.3226089
  70.3485260 176.8557281  26.5397758  69.5645294 176.6628876  27.4938984
  71.6730804 176.8790894  26.5977039  72.1835251 176.8643188  27.4691010
  72.2268219 176.8584595  25.7532825  71.6333160 179.0601501  23.9150524
  72.7312012 178.7898560  24.4184303  71.5775681 179.0663910  22.5321388
  70.6858826 179.3277588  22.1363049  72.7079315 178.7274780  21.5868282
  72.9709778 177.6861267  21.7725430  72.3830795 178.9724884  20.0814781
  72.0694046 180.0114594  19.9802761  73.2357178 178.7575989  19.4373207
  71.1991577 178.1142120  19.6073170  70.3594208 178.0661163  20.3005924
  70.7120514 178.6716003  18.2033024  71.5532532 178.7645874  17.5163994
  69.9071198 178.0663147  17.7863827  70.3147964 179.6823578  18.2963028
  71.5624084 176.6793671  19.3548279  71.8382492 176.1044617  20.2388439
  70.7011414 176.1565552  18.9389133  72.2895889 176.5359497  18.5556202
  73.9739227 179.5254059  21.9020596  75.0160217 178.9177704  21.7707577
  73.8652267 180.8429413  22.2990742  72.9339905 181.2338409  22.3086052
  75.0767593 181.6666107  22.5359592  75.6889267 181.4790039  21.6538258
  74.7324982 183.1330719  22.6746273  73.7573624 183.3307495  23.1197376
  75.4091263 183.5829163  23.4012051  74.7249146 183.8896942  21.3886032
  75.8855362 184.4808350  20.8480530  75.5410080 184.9678497  19.6195660
  76.1061478 185.7550049  19.1427097  74.2117920 184.8175812  19.4747372
  73.6732559 185.1036682  18.6696033  73.7018890 184.1164398  20.5741463
  72.6545563 183.9136353  20.7426147  76.0137405 181.1803741  23.7440376
  77.1933289 181.6223450  23.8378429  75.4540329 180.2959442  24.5820332
  74.5083618 179.9475098  24.5156250  76.2680206 179.6394043  25.6101913
  77.0966492 180.3312531  25.7612534  75.5490570 179.3680573  26.9279308
  74.6376877 178.8207092  26.6872711  76.1935272 178.7876740  27.5881805
  75.1625214 180.6931915  27.6395264  76.0496750 181.3131104  27.5100975
  74.3912354 181.0912476  26.9801559  74.8079987 180.5461578  29.1224556
  74.6871719 181.6138763  29.7736855  74.5985107 179.4247284  29.6808109
  76.8332901 178.3450012  25.0676346  77.9116821 177.9718170  25.4937115
  76.1242294 177.5990601  24.2548809  75.1648560 177.7513885  23.9782848
  76.6590958 176.3982849  23.5999889  77.2026062 175.8262634  24.3519707
  75.5458603 175.4469910  23.0231152  74.9056244 175.9563141  22.3028488
  76.1044922 174.6763763  22.4919071  74.5077972 174.8408508  23.9752827
  74.6891251 174.7975769  25.2947788  75.5171051 175.1643677  25.8832607
  73.5683975 174.1668854  25.8555012  73.4631805 174.0640106  26.8547230
  72.5943298 173.7869568  24.9273472  71.3307953 173.1609650  24.9581051
  70.9242172 172.7728271  25.8802967  70.6707535 172.9095459  23.7311554
  69.7291870 172.3813934  23.7611523  71.2409821 173.2906494  22.5000019
  70.7472000 173.1225281  21.5543194  72.4887619 173.9190826  22.5260963
  72.8688889 174.1798706  21.5494194  73.1845627 174.2552338  23.7475834
  77.7710114 176.7776642  22.5714531  78.6328583 175.9233856  22.2856674
  77.7481461 177.9892883  21.9640732  76.9591827 178.5356598  22.2788639
  78.7108307 178.4963074  20.9981136  79.6154938 177.9048004  21.1388493
  78.2088623 178.2390900  19.5323467  77.7127457 177.2688141  19.5557957
  77.4752274 179.0103302  19.2976513  79.3012085 178.2088776  18.5347023
  80.4459610 178.3342438  18.9822636  78.9977798 178.0377960  17.3251629
  79.0580215 179.9882355  21.3002586  78.4597321 180.8873291  20.7233086
  80.0386581 180.1932983  22.1777229  80.3209381 179.3339386  22.6270638
  80.4832535 181.4904938  22.6660919  79.5497284 182.0079346  22.8871861
  81.3733826 181.3730774  23.9457111  82.3060226 180.9279938  23.5990238
  81.5086288 182.3912659  24.3105335  80.7650757 180.5378723  25.0662384
  80.9606934 180.9132690  26.0706806  79.6784592 180.4739838  25.1235313
  81.2845764 179.1036835  25.0502281  81.0820160 178.3438416  24.1293278
  82.0885086 178.8235016  25.9672718  81.2001419 182.3698425  21.6498756
  81.5940933 183.4877167  21.9472427  81.5003357 181.8607330  20.4494991
  81.1470337 180.9318695  20.2692394  82.1349106 182.5142365  19.2501450
  82.3505783 183.5438232  19.5357285  83.4885559 181.8454437  18.9854469
  83.2706299 180.7960663  18.7868671  83.9172440 182.2862396  18.0854340
  84.4243546 181.9484711  20.2300625  84.6892242 180.9763336  20.9518452
  84.8805008 183.1706696  20.5439434  85.5033875 183.3818817  21.3104343
  84.4433136 183.9674835  20.1034298  81.2463837 182.6454926  18.0136929
  81.7253113 182.8473816  16.8922291  79.9578018 182.4743652  18.2477989
  79.7817917 182.3002930  19.2269917  78.9304428 182.4951477  17.2107773
  79.3199005 182.0370331  16.3016262  77.7064285 181.7192688  17.7534523
  78.0605164 180.7184143  18.0004616  77.2988358 182.0618439  18.7045650
  76.6323395 181.4558563  16.6716366  77.0731506 181.6043091  15.6858625
  75.9028015 180.1758270  16.8025513  75.4966202 180.0442657  17.8054523
  75.0607834 180.2383423  16.1132030  76.6049728 179.3829956  16.5447769
  75.5920715 182.4947815  16.9999619  75.9474869 183.5172729  17.1276112
  74.9414368 182.4963379  16.1254463  75.0046082 182.1620789  17.8557034
  78.6453705 183.9815826  16.8147144  78.2444992 184.7532654  17.6386757
  78.6943283 184.2696838  15.5110378  79.0108566 183.5414886  14.8868256
  78.0066986 185.4663239  14.8628922  77.6487274 186.1421356  15.6395702
  79.0338974 186.1374054  13.8761654  79.4264374 185.3982086  13.1778727
  78.4453430 186.8459320  13.2933302  80.2011490 186.8729706  14.4524164
  79.8815536 187.6672516  15.1270227  80.7996597 186.1933289  15.0590267
  81.0893250 187.4476166  13.3993549  81.9639206 187.9300995  13.8356762
  81.3414459 186.5919189  12.7729940  80.4956970 188.4995422  12.4588461
  80.9871674 188.5739136  11.4887810  79.4836044 188.2780762  12.1201420
  80.6038666 189.8254700  13.0658455  81.5708237 190.0769958  13.2136126
  80.1861343 190.5287781  12.4734211  80.1767960 189.8027649  13.9808283
  76.7591171 185.0272522  14.1797199  76.7914886 183.9662781  13.6364212
  75.7018356 185.8497620  14.2273521  75.6525345 186.5971680  14.9048882
  74.3599319 185.3063812  13.8731689  74.2097015 184.3617401  14.3958683
  73.2029495 186.0959930  14.3556099  73.2407227 187.0658112  13.8595066
  72.2844315 185.6163635  14.0173883  73.0018463 186.3962402  15.8517675
  73.8219681 185.9272156  16.6989861  72.0356140 187.1164093  16.2458324
  74.2838440 185.0718079  12.3393383  73.1844330 184.5428314  11.9728212
  75.2887497 185.4374390  11.5432043  75.9932022 185.9895020  12.0112534
  75.3587112 185.3374939  10.1301851  74.5427094 185.8621521   9.6332254
  76.6884460 185.9056091   9.6541424  77.4619751 185.3317871  10.1645269
  76.7617416 185.8686218   8.5672340  76.9912796 187.3151855  10.0867844
  77.2330780 187.4739532  11.1377001  77.8724670 187.6084137   9.5161400
  75.8736725 188.3392334   9.7341995  75.1436005 188.0881195   8.7113428
  75.6867523 189.3536682  10.4318886  75.2320786 183.8450470   9.6186399
  74.9405212 183.6462860   8.4512815  75.5700836 182.8264465  10.4781322
  75.9607239 183.0137482  11.3905020  75.3987045 181.3466949  10.1404533
  75.6419678 181.1759949   9.0917435  76.3262329 180.6020050  11.0902786
  76.4415588 179.5455780  10.8478775  77.3259125 181.0268402  10.9993782
  75.9588776 180.8453522  12.3769989  76.4334641 180.2695007  12.9809580
  73.9243546 180.8366547  10.3360758  73.5727234 179.7340851   9.8954077
  73.1087799 181.6474762  10.9881849  73.4267807 182.5741882  11.2334642
  71.7194061 181.2787323  11.2967491  71.5478821 180.2028503  11.3308821
  71.4286423 181.7025909  12.7686157  71.8180084 182.7172852  12.8516808
  70.3685303 181.5381317  12.9615421  72.2887573 180.8667603  13.7449560
  73.3299255 181.1171570  13.5415497  71.9698105 181.2741852  15.2027788
  70.9450378 181.0006866  15.4540491  72.6456146 180.6996613  15.8362732
  72.1229553 182.3526917  15.2411232  72.0760651 179.3350525  13.7360868
  72.4188843 178.9148865  12.7905569  72.6362915 178.8242950  14.5192585
  71.0265732 179.0628510  13.8482084  70.6842728 181.8077850  10.3056164
  70.8478699 182.9456177   9.8284206  69.5591278 181.0236206  10.0470924
  69.3960648 179.6167603  10.2308550  68.9481354 179.4720917  11.2139816
  70.3618698 179.1164551  10.1599407  68.5051193 179.1413879   9.1336937
  67.9310608 178.2657776   9.4367924  69.1180496 179.0034180   8.2429695
  67.5736160 180.3694305   8.9708748  66.8208084 180.2920227   9.7553349
  67.1529541 180.3814087   7.9653907  68.5007324 181.5490875   9.2399607
  68.9305725 181.9824066   8.3368673  67.6894150 182.6382599   9.9952030
  67.4956284 182.5786896  11.2338419  67.1636353 183.6265259   9.2309065
  67.3256989 183.6292267   8.2339964  66.2547607 184.6535034   9.7797012
  66.5242386 184.7877045  10.8273029  66.2744598 186.0025787   9.0620766
  65.6054840 186.7321320   9.5185137  67.6085358 186.6825714   9.1683865
  68.4109497 186.0644531   8.7657022  67.6113281 187.6827698   8.7351131
  67.8087769 186.9002838  10.2174835  65.8956070 185.8815460   7.6935525
  65.2909470 186.6079712   7.5254025  64.7833328 184.1253052   9.8795662
  63.9933510 184.5149994  10.7587118  64.4250107 183.0520630   9.1333036
  65.0536194 182.7781677   8.3917332  63.0509987 182.5589294   9.0125685
  62.3995171 183.4310455   9.0681248  62.9683418 181.8550720   7.6269870
  63.5414352 182.4054108   6.8807979  63.5614243 180.9409943   7.6555471
  61.5741310 181.7550201   7.1155443  60.8027802 182.7136230   7.0620537
  61.2758446 180.5584106   6.6923528  60.4083023 180.4549713   6.1856284
  61.9788513 179.8515167   6.5305176  62.7993011 181.5528259  10.1890354
  63.6111221 180.6461029  10.3593988  61.6383362 181.6492157  10.9550581
  60.6214943 182.7206573  10.9877586  60.2384415 183.0261230  10.0140734
  61.0372009 183.5941772  11.4900122  59.5721626 182.0787354  11.8682747
  58.8528900 181.4474487  11.3465319  59.0170708 182.8535614  12.3970823
  60.3192482 181.2540436  12.9119310  59.6813011 180.5268860  13.4143143
  60.7397079 181.8309631  13.7356272  61.4513245 180.6932526  12.0514727
  62.3371010 180.7167969  12.6862535  61.0818634 179.2599030  11.6811867
  61.4061165 178.3724365  12.4564695  60.6524048 178.9245453  10.4386301
  60.4550819 179.7146606   9.8412371  60.4748650 177.5561829   9.9657831
  59.8361397 177.0395508  10.6821690  59.7056389 177.5140533   8.5582304
  60.3032722 178.2325287   7.9972305  59.7601280 176.1990967   7.7472558
  59.4858322 175.2824860   8.2694473  59.0585823 176.1988678   6.9130301
  60.7750168 176.0575714   7.3756685  58.2710915 178.0347595   8.7196550
  57.5439911 177.2532501   8.4990683  58.1450386 178.2341614   9.7838259
  58.0708847 179.4429474   8.0131407  58.0625305 179.3206177   6.9300575
  57.1190300 179.7595062   8.4395866  58.8404655 180.1539612   8.3136225
  61.8814697 176.9144135   9.9503822  62.1305733 175.9340210  10.6159115
  62.8020477 177.4466553   9.1107645  62.4267693 178.1194000   8.4575491
  64.1689377 176.9422607   8.9605865  64.1429596 175.8997650   8.6433268
  64.8934784 177.6809998   7.8022022  65.0975647 178.6434174   8.2714453
  65.8271942 177.1309662   7.6849980  64.1098251 177.9644775   6.4646044
  62.9174995 178.3390198   6.5412507  64.7598877 177.8907166   5.4110694
  65.0991669 176.9184265  10.1293201  65.7906113 175.8958893  10.3781328
  65.0061569 177.9245453  10.9861078  64.3663330 178.6785126  10.7805452
  65.6779938 177.9384155  12.2407713  66.7478485 177.7817841  12.1030254
  65.5434189 179.2758331  12.9046669  65.8357010 180.1107178  12.2677698
  64.4761963 179.4949799  12.9380779  66.0885849 179.5554199  14.2811508
  65.2003250 179.2613525  15.3194990  64.2571335 178.7980347  15.0702438
  65.5642166 179.6653442  16.6277390  64.9643631 179.3899536  17.4825630
  66.8242111 180.2149048  16.8504810  67.1185226 180.4268494  17.8677635
  67.7738647 180.4222870  15.8652620  68.7810669 180.7159729  16.1215572
  67.3580322 179.9958801  14.5778666  68.0822144 180.0349426  13.7775955
  65.1903992 176.8303070  13.2168283  65.9630585 176.0412292  13.8482161
  63.8645477 176.7151337  13.2850590  63.3243256 177.3841553  12.7552691
  63.3147545 175.6782532  14.1579733  63.8188095 175.6816559  15.1244183
  61.8417892 175.9322662  14.4576702  61.5357399 175.1974487  15.2022982
  61.6879082 176.9782410  14.7228994  61.0324364 175.7799072  13.3397589
  61.1660385 176.5464630  12.7774992  63.5709190 174.2491608  13.6491442
  64.0335922 173.4266510  14.4257183  63.5176735 173.9797668  12.3184128
  63.0040970 174.6061859  11.7151299  63.9262543 172.6644592  11.8126020
  63.3009377 171.9103851  12.2905836  63.6523209 172.6869049  10.3449888
  64.0335999 173.5957947   9.8795433  64.2247467 171.8408508   9.9647083
  62.2580872 172.3479156   9.9054461  61.6723938 171.1969147  10.3670492
  62.1886940 170.6561584  11.1464186  60.5213470 170.6273804   9.7676096
  60.0002708 169.7382660  10.0906134  59.9754257 171.3345490   8.6702185
  58.7835960 170.9149628   8.1418219  58.4095268 171.5563660   7.5333219
  60.5036049 172.5474243   8.1945219  60.0529861 172.9476166   7.2983136
  61.6260223 173.0616150   8.8137751  62.0427475 173.9834747   8.4357166
  65.4509048 172.3667450  12.0971785  65.7540436 171.2708740  12.6143827
  66.3839417 173.3609467  11.8923512  65.9938583 174.2044525  11.4968290
  67.8404846 173.3541565  12.3036928  68.3583527 172.6107788  11.6976347
  68.4180832 174.8055420  11.9814901  68.2919159 175.1295776  10.9484415
  67.9209518 175.5088654  12.6495523  69.8899765 174.9016113  12.3836842
  70.2471008 175.9195251  12.2273464  69.8876953 174.7865448  13.4675913
  70.8558807 173.9998322  11.7179222  71.8193130 174.1658630  12.1999474
  70.5021744 172.9815521  11.8794546  70.9609375 174.3285828  10.2637215
  70.2427750 173.9957275   9.6363831  71.9310837 175.0318451   9.6913939
  72.7365952 175.8179016  10.3349934  72.5231323 175.8849487  11.3198986
  73.5322037 176.2517700   9.8890438  72.0390320 174.9911957   8.3929977
  71.4144516 174.4991302   7.7702150  72.7902374 175.5456238   8.0077667
  67.9962769 172.9007263  13.8218632  68.7393494 172.0189056  14.2204933
  67.1177597 173.4024048  14.6991377  66.4461136 174.0386963  14.2940073
  67.1992035 173.2079315  16.2233658  68.2482376 173.1766968  16.5177250
  66.4809723 174.3469391  16.8569431  65.6110535 174.5959625  16.2492104
  65.9766159 174.0815277  18.2483444  66.8194046 174.0716095  18.9395046
  65.4391708 174.9659424  18.5905037  65.4701080 173.1527252  18.5107956
  67.2817612 175.6562958  16.9022484  67.6691589 175.8794556  15.9081488
  66.6805496 176.4750671  17.2975521  68.1767349 175.5348663  17.5124893
  66.5260925 171.8963470  16.5424366  67.0844040 171.1338501  17.3441048
  65.3933334 171.5259705  15.8850422  64.9714203 172.2327728  15.2997856
  64.7722702 170.1999207  15.9341049  64.5824356 169.9069214  16.9666843
  63.4074516 170.1934052  15.2566175  63.5015831 170.5994873  14.2494736
  62.9601669 169.2009125  15.2020550  62.7295647 170.8069305  15.8500500
  65.7339478 169.0495148  15.4687357  65.7215271 167.9683838  16.1064320
  66.5647812 169.3216095  14.4582815  66.3909836 170.1777344  13.9513731
  67.6554947 168.4255219  14.0209503  67.2069702 167.4922180  13.6805248
  68.2896194 169.0725861  12.7474861  68.9074402 169.9345856  12.9991903
  69.0862503 168.4097900  12.4095526  67.5729141 169.2301636  11.9415054
  68.5473251 168.2550964  15.2251930  68.8681870 167.1260376  15.6093216
  69.0631332 169.3782501  15.7349825  68.7525787 170.2719269  15.3814363
  70.2848892 169.3368683  16.5688019  70.9645691 168.5691528  16.1990089
  71.1437225 170.6050568  16.2666035  72.1303177 170.4436188  16.7009621
  71.2033844 170.7204285  15.1843691  70.3902130 172.0144196  17.0917034
  69.5486984 172.2640686  16.0845184  70.1306076 169.1382904  18.1150990
  71.1138077 169.0798187  18.7832146  68.9011307 169.0565796  18.7217197
  68.1015396 169.1981354  18.1211243  68.6529999 168.7081146  20.1388283
  69.3159714 169.3282318  20.7421589  67.1805878 169.0458527  20.5218601
  66.5233383 168.8779449  19.6686726  66.9378204 168.3874664  21.3559418
  67.0922241 170.5682220  20.7998543  67.8264008 171.1127777  20.2060966
  65.6709824 171.1191406  20.5859509  64.9742889 170.5402374  21.1922455
  65.6575317 172.1607971  20.9066582  65.5189743 170.9902496  19.5143242
  67.4555435 170.8556213  22.2620640  68.4951248 170.6743011  22.5349884
  67.1531830 171.8801117  22.4790897  66.8290253 170.2053528  22.8725872
  68.8802490 167.1904907  20.4888821  68.3336258 166.3074493  19.8691807
  69.5243149 166.9210968  21.6199150  70.3074799 167.8914032  22.3960724
  69.6664581 168.6100922  22.9066486  70.8796310 168.4721375  21.6725330
  71.1978989 167.0489197  23.3269711  70.6956787 166.9944611  24.2928410
  72.0777588 167.6674347  23.5041065  71.3090057 165.7487640  22.6523018
  71.6034775 164.9460449  23.3283463  72.0770874 165.8430786  21.8846703
  69.9735107 165.5449829  21.9607334  70.1590881 165.0245209  21.0211678
  68.9761429 164.8030396  22.8424911  69.2470474 164.6535187  24.0430775
  67.7997055 164.4267120  22.2857075  67.6648636 164.7937469  21.3544693
  66.7021255 163.6743164  22.9477692  67.0854492 163.4285431  23.9381008
  65.4003983 164.4822845  22.9737759  64.5203018 163.8689423  22.7805157
  65.2806396 165.0715790  24.3980103  66.1318665 165.6980591  24.6645889
  64.3451385 165.6293335  24.3551636  65.2151794 164.2649994  25.1282406
  65.3663330 165.6770630  21.9455357  65.9060822 166.5367432  22.3426666
  65.7034378 165.2940216  20.9823418  63.9208412 166.1227264  21.6700687
  63.4223595 166.4341736  22.5880146  63.8453331 166.9435577  20.9568806
  63.3814049 165.2834473  21.2310715  66.4240036 162.3705597  22.2986240
  66.8519363 162.1501923  21.1705685  65.8130035 161.4473419  23.0675392
  65.5241699 161.6964417  24.0027523  65.3175049 160.0874176  22.5372124
  66.1163406 159.5249939  22.0538540  64.9253082 159.3053894  23.8167477
  64.8552551 158.2521362  23.5450039  65.7926941 159.3019104  24.4768524
  63.7450027 159.9083710  24.4845867  63.9838486 160.7768250  25.3149166
  62.6119270 159.4697113  24.3120441  64.2216187 160.1919708  21.5376339
  63.4821472 161.1653137  21.3908691  64.1543808 159.1092224  20.7767200
  64.6954498 158.2975311  21.0384312  63.3854065 159.0672150  19.5179234
  63.7123489 159.8897858  18.8818378  63.4311066 157.7471161  18.7423630
  63.3721581 156.9153137  19.4443130  62.5601540 157.7292023  18.0872078
  64.7198944 157.5001831  17.9460125  65.7026596 158.3043518  18.0756855
  64.8349686 156.5189514  17.2070179  61.8786888 159.2564545  19.7522926
  61.2507019 159.9165802  18.9544144  61.3188896 158.6618805  20.7837715
  61.8225632 158.0436401  21.4036083  59.8329315 158.6190643  20.8970337
  59.4853935 158.1895752  19.9574318  59.5281639 157.6619720  22.0667477
  60.0253181 158.0036316  22.9746056  58.4467354 157.6626434  22.2031860
  59.8815308 156.6661530  21.7991943  59.3072433 160.0963593  21.1059837
  58.2351646 160.4603271  20.6511707  60.1643524 160.9839630  21.7123566
  61.0049934 160.6346283  22.1498432  60.0423470 162.4258881  21.7851830
  58.9857864 162.5237885  22.0345860  60.7253609 162.9330902  23.0119877
  60.3844185 162.3904724  23.8937035  61.7856445 162.6807098  22.9976768
  60.4846916 164.4383850  23.2480679  60.7785072 165.0153656  22.3712177
  59.0222168 164.7854614  23.5221748  58.7121696 164.2989044  24.4469643
  58.9103851 165.8689728  23.5622253  58.3993645 164.4663696  22.6865082
  61.4165115 164.8802032  24.3216095  62.4484100 164.7389526  24.0001602
  61.2745590 165.9565582  24.4186878  61.0968170 164.3332672  25.2085915
  60.3730927 163.1579895  20.4947796  59.6585197 164.1351471  20.2188892
  61.3078270 162.7249908  19.6739655  61.8974762 161.9662170  19.9849167
  61.6954460 163.4077148  18.4041901  61.7053146 164.4920654  18.5145531
  63.1179886 162.9884644  17.9522552  63.0840302 161.9186096  17.7464504
  63.1479797 163.5287018  17.0060253  64.3099518 163.4708252  18.8420620
  64.2445679 164.5485382  18.9915390  64.2276993 163.0714722  19.8529320
  65.6546173 163.0559998  18.2861309  66.3938446 163.4580231  18.9789734
  65.7505264 161.9709015  18.2481136  65.9577255 163.4829559  16.9053326
  65.6230316 162.9259186  16.1321697  66.8903580 164.3855286  16.5003586
  67.3355331 165.2276917  17.3666477  67.1322250 165.0728912  18.3437901
  67.8853531 166.0211029  17.0695076  67.4639053 164.3731384  15.3525391
  67.2690048 163.7675934  14.5680456  68.1326523 165.1183624  15.2202206
  60.6676712 163.0790100  17.2652454  60.6054039 163.8698730  16.3144779
  59.8105507 162.0721283  17.3743286  59.9260406 161.3973389  18.1169014
  58.6365967 161.7299500  16.5648022  58.9546738 161.8113098  15.5254240
  58.1241760 160.2564087  16.8038597  57.9394875 160.1337128  17.8710690
  56.8486900 159.8697815  16.0369663  57.0882874 159.7532043  14.9800386
  56.3299561 158.9644012  16.3521099  56.1901016 160.7276764  16.1725845
  59.1335983 159.2486267  16.2008018  59.1659431 159.4274597  15.1260586
  60.1388245 159.4029083  16.5929947  58.8146591 157.8059235  16.6320648
  57.9883423 157.3384399  16.0965557  59.7025604 157.1989746  16.4550285
  58.5472221 157.7957001  17.6886978  57.5822029 162.7902069  16.8381424
  56.8975372 163.2725372  15.9035797  57.3826332 163.1192017  18.1388340
  58.0068398 162.7038574  18.8155575  56.3253632 164.0792542  18.5672531
  55.3889198 163.7711487  18.1022339  56.1714363 164.1692047  20.1271381
  57.0210037 164.6278839  20.6330528  55.3055992 164.7900238  20.3573723
  56.0508003 162.8365479  20.8703537  57.0697212 162.4494019  20.8741779
  55.7972183 163.0218506  21.9141273  55.0764122 161.8073730  20.2909832
  54.0235748 162.2074890  19.7729607  55.3069878 160.4830780  20.4564381
  54.6531944 159.7832336  20.1356888  56.2407722 160.1980438  20.7150898
  56.6767273 165.4211731  18.0595360  55.8948059 166.1552887  17.4989395
  57.9764595 165.7541809  18.1483860  58.5766907 165.2868652  18.8127899
  58.4956284 166.9142914  17.5084305  58.0056915 167.7780914  17.9577885
  59.9759407 167.0091248  17.8702812  60.1455765 166.6633759  18.8899803
  60.5318604 166.3299561  17.2239056  60.6432877 168.4526672  17.7383804
  60.4096107 168.8388367  16.7462234  60.0141869 169.4032135  18.7004089
  60.2089424 169.0915375  19.7265778  60.3304863 170.4425659  18.6121655
  58.9360390 169.4906769  18.5660725  62.1200523 168.3600616  17.9459877
  62.6675606 167.9553680  17.0947800  62.4618492 169.3342133  18.2957096
  62.4357605 167.7854309  18.8167572  58.4619217 166.9264374  15.9877834
  58.2585068 167.9319153  15.4018030  58.5807495 165.7474365  15.3069572
  58.9516830 164.9568481  15.8143721  58.4646263 165.6673126  13.8637877
  59.0576439 166.4902649  13.4648018  59.0853653 164.3414307  13.4418106
  60.0720062 164.2094727  13.8859138  58.4748955 163.5340729  13.8462887
  59.1419830 164.0925903  11.8494644  58.1372032 164.2014923  11.4412260
  60.1007843 165.0018768  11.1275549  61.1329079 164.7280731  11.3463144
  60.0437813 164.8712463  10.0469141  60.0423470 166.0762024  11.3022795
  59.6101494 162.6473236  11.5942440  58.9983711 161.8895264  12.0837078
  59.3842926 162.4418945  10.5478735  60.6476250 162.4988251  11.8937340
  57.0071983 165.9351349  13.4509363  56.6504936 166.5363922  12.4225187
  56.0688972 165.3821411  14.2254238  56.2728729 164.8431244  15.0548525
  54.5730553 165.5736237  14.0537701  54.2811317 165.1805115  13.0799370
  53.7857246 164.7869720  15.0691872  54.2382965 165.0153198  16.0341415
  52.7666512 165.1691742  15.1284552  53.6367798 163.3028717  14.7380352
  52.8890800 163.1482697  13.9601259  54.6017418 162.9264221  14.3985834
  53.0875435 162.5883789  16.0207787  53.9263573 162.6144257  16.7163448
  52.2260056 163.0710907  16.4821301  52.7719727 161.1210480  15.6338139
  52.0666237 161.1362762  14.8029375  53.6443253 160.6552582  15.1754150
  52.3595009 160.3371124  16.8015919  51.5140800 160.7511139  17.1676102
  52.2657928 159.3703461  16.5246544  52.9691505 160.3618622  17.6064606
  54.0506401 166.9827728  14.0285559  53.0541763 167.2648163  13.3573256
  54.5977707 167.8173828  14.8909616  55.4516029 167.6005859  15.3849964
  54.0078163 169.0816956  15.2193375  53.0922470 169.0171356  15.8072672
  55.0681114 169.9145508  16.0468616  56.0864868 169.6894379  15.7301092
  54.9078369 171.4777222  15.8974218  53.8654213 171.7930908  15.9422112
  55.5377922 171.9310913  16.6627388  55.2899666 171.7174835  14.9051580
  55.0587120 169.5778046  17.5391293  55.1397438 168.5005035  17.6838398
  55.9249916 170.0479126  18.0045910  53.8426056 170.0390320  18.3323345
  53.0972633 169.2466278  18.2639580  54.1373329 170.1054077  19.3796329
  53.3366013 170.9434204  17.9945183  53.7195168 169.8903656  13.8957472
  54.5912476 170.0391541  13.0238647  52.5341988 170.5254822  13.8643084
  52.0053406 170.3917542  14.7143240  51.9595642 171.2291870  12.7584438
  51.8173561 170.5692291  11.9026804  50.9464531 171.5140381  13.0422859
  52.6952934 172.4553680  12.3370552  52.9641533 172.6459503  11.1439114
  53.0762939 173.2610931  13.3454990  52.7433929 172.9984894  14.2621889
  53.5589943 174.6233063  13.1402712  53.8298798 174.6923218  12.0867262
  52.4398499 175.6772919  13.3817263  51.4908218 175.3758240  12.9383678
  52.3567276 175.7735443  14.4642820  52.7842941 176.9800720  12.8930025
  52.1826019 177.1626282  12.1675777  54.8644638 174.9387207  13.8790083
  55.0905571 174.5428009  15.0209904  55.6097145 175.8427887  13.2875414
  55.3195724 176.1898651  12.3845186  56.8867264 176.3867798  13.7906551
  57.5502396 175.5285645  13.8970289  57.5495377 177.3304901  12.7490749
  56.7764969 178.0328827  12.4373560  58.3560143 177.9284058  13.1735821
  57.7693596 176.7862244  11.8306198  56.8549728 177.1019745  15.1874113
  57.7205391 176.8723755  16.0361576  55.8872414 177.9656830  15.3434448
  55.1562080 178.0361176  14.6500959  55.5493813 178.4896088  16.6820621
  56.3479729 179.1460876  17.0276184  54.2558708 179.3566895  16.5725307
  53.5166969 178.7563629  16.0421181  53.7567368 179.6459808  18.0344963
  54.5190697 180.1945801  18.5876560  52.8817825 180.2777405  17.8814163
  53.4788284 178.7421570  18.5767002  54.6589699 180.6568604  15.8840322
  55.0986671 181.2953644  16.6502438  55.3485527 180.4609070  15.0629463
  53.4528275 181.2910004  15.2307262  52.8462486 181.7371826  16.0188160
  53.8831406 182.0859070  14.6215925  53.0483589 180.5701141  14.5202122
  55.4347267 177.3727570  17.7776623  55.9592857 177.5322113  18.8993568
  54.8178635 176.2437134  17.3480473  54.4273796 176.2348633  16.4166279
  54.5713234 175.0971985  18.3212585  54.3539162 175.4067535  19.3435154
  53.4422035 174.2400055  17.7365456  53.6191101 174.0699158  16.6745319
  53.4681435 173.2913971  18.2728004  51.9829025 174.6541748  17.7446384
  51.6800804 174.5681152  18.7881870  51.8115997 175.6889496  17.4479980
  51.1007729 173.7898560  16.8101177  51.4919205 173.1072998  15.8571720
  49.8037567 173.8602142  17.1015816  49.1006737 173.5708466  16.4367199
  49.5414238 174.4476318  17.8801823  55.8154335 174.2592316  18.4540253
  56.0551186 173.7406006  19.5386257  56.6817932 174.1548004  17.4498405
  56.4202728 174.6264801  16.5958977  57.8999100 173.3779449  17.4594307
  57.6764908 172.4347229  17.9579525  58.3624039 173.2584534  15.9518118
  57.6254463 172.6622162  15.4137468  58.4677544 174.2571106  15.5279493
  59.6747093 172.5339661  15.6436462  60.5005951 173.1626129  15.9765425
  59.5998459 171.6323395  16.2515488  59.8709221 172.0572052  14.1761351
  60.8080101 171.5041351  14.1122265  59.1594925 171.2665100  13.9378719
  59.9526978 173.0682220  13.1467714  60.7128944 173.6966248  13.3642683
  59.2688866 173.1923676  12.0138054  58.3282433 172.4114838  11.6168385
  58.0299988 171.6261597  12.1775646  57.8563194 172.6614838  10.7595787
  59.6053391 174.1103210  11.1924858  60.3878136 174.7189484  11.3858719
  58.9252052 174.3701477  10.4924736  58.8328590 174.1025391  18.4426193
  59.2851143 173.5541382  19.4452038  59.0435333 175.3819122  18.2170124
  58.5896149 175.8047638  17.4199867  59.7632141 176.3399658  19.1390800
  60.7812195 175.9588928  19.2200012  59.5589104 177.7879028  18.6193562
  58.5101204 177.9550171  18.3739853  59.9279747 178.4572449  19.3964424
  60.3955803 178.1140900  17.3255501  60.3570442 177.2573547  16.6527843
  59.7816772 179.3102112  16.5227547  59.9027863 180.1926575  17.1510391
  60.2733574 179.4047546  15.5545540  58.6972923 179.2152710  16.4661942
  61.8236122 178.5581665  17.7056293  62.4701920 177.6847229  17.7900505
  62.1545906 179.1426239  16.8471642  61.9308052 179.1963959  18.5827103
  59.2779388 176.2469330  20.5931892  60.0792580 176.0597382  21.5402775
  57.9785919 176.2928314  20.9029598  57.3195534 176.3613739  20.1406803
  57.5509300 176.0974121  22.3127899  57.8875656 176.9328918  22.9265747
  56.0520973 176.2684021  22.2308216  55.6231728 175.6631927  21.4321709
  55.6745415 175.7594757  23.1176987  55.5226212 177.6909790  22.1306171
  56.0022049 178.3315430  22.8707409  55.9082909 178.1708984  21.2311497
  53.9412880 177.8151855  22.0997620  53.6778183 178.8658142  21.9778671
  53.6641159 177.2568512  21.2055969  53.3285484 177.1614075  23.2954674
  53.0383949 176.2034912  23.1601562  53.1038017 177.6873932  24.4684658
  53.4825096 178.9351807  24.7759857  53.7550430 179.5652466  24.0351467
  53.1485977 179.3229370  25.6467667  52.6399841 176.9957733  25.4305458
  52.3591270 176.0401001  25.2635250  52.8403206 177.2441864  26.3888016
  57.9408951 174.7273712  22.9097748  58.2722588 174.6884613  24.0837040
  57.8655128 173.6426697  22.1539211  57.5087318 173.7183228  21.2120705
  58.3456955 172.3757172  22.6445827  57.9053879 172.2157593  23.6287861
  57.8635979 171.3383942  21.5946484  56.8084183 171.4405823  21.3411674
  58.4539146 171.5180969  20.6961308  58.2563019 169.6845245  22.1839428
  57.0465126 169.1661987  21.9545174  59.8523903 172.2739563  22.8512745
  60.3504219 171.7266998  23.8787022  60.6203651 172.8297424  21.9138298
  60.2164154 173.1172943  21.0339222  62.0572586 172.9168243  22.1041794
  62.4757385 171.9106140  22.1269550  62.7199821 173.6114807  20.8734798
  62.2387810 174.5803833  20.7401581  63.7850761 173.7646484  21.0473156
  62.5306854 172.8530426  19.5441189  63.2711983 172.0557098  19.6073246
  61.6668777 172.2160645  19.3538685  62.7913055 173.7299957  18.3216438
  62.9433670 174.9751282  18.4562550  62.6239967 173.2070312  17.1823635
  62.4692307 173.6992188  23.3670597  63.3756294 173.2377777  24.0799351
  61.7987671 174.7835083  23.7022266  61.0848351 175.0795135  23.0520172
  62.0563736 175.5718079  24.9102802  63.1013832 175.8815613  24.8997059
  61.3284874 176.9304657  24.7674351  60.3374214 176.7744904  24.3413353
  61.2057915 177.3839264  25.7510109  62.0968056 177.8819580  23.8128033
  62.3811684 177.3865662  22.8844585  61.1615829 179.0167542  23.3719578
  60.7475815 179.5150452  24.2485485  61.7168503 179.6828766  22.7116108
  60.3534012 178.5696869  22.7931061  63.3524895 178.4998016  24.3715534
  64.0820389 177.7301025  24.6233768  63.9019775 179.0646667  23.6184978
  63.1277313 179.1352844  25.2281418  61.6740036 174.8173523  26.2329617
  62.2723808 175.0350189  27.3022232  60.7448692 173.8507385  26.0389996
  60.3648186 173.6522827  25.1245155  60.2809410 172.9735565  27.1078663
  60.0913048 173.5958405  27.9824543  58.9270973 172.3985596  26.7323589
  58.4522095 173.0783386  26.0249004  59.0447960 171.4348450  26.2368679
  57.8848190 172.3205414  27.8732948  57.6990967 173.3358765  28.5897465
  57.3701363 171.1883392  28.1052856  61.2951050 171.8361816  27.4576645
  61.5970726 171.6401062  28.6329231  61.8869667 171.2325287  26.4173985
  61.6339912 171.6726837  25.5442638  63.1058655 170.3497772  26.4607315
  62.7675781 169.5182190  27.0789337  63.4355469 169.7987366  25.0286598
  63.4724350 170.5811310  24.2706261  64.7216339 168.9963531  25.1157684
  64.7771225 168.3238678  25.9717999  64.9844971 168.5423737  24.1603050
  65.5437088 169.6646118  25.3721008  62.4357147 168.6828003  24.6650352
  62.7640038 167.6569977  24.8325119  61.5055008 168.8388367  25.2113457
  62.1072655 168.7039490  23.1733551  62.9536591 168.5417175  22.5059738
  61.3945122 167.9204254  22.9160767  61.6325684 169.6544647  22.9299011
  64.3112564 171.1469574  27.0140038  64.9029236 170.5877380  27.9501762
  64.7152176 172.3369598  26.5064030  64.1546707 172.7429962  25.7708549
  65.8953323 173.0724792  27.0508652  66.6845627 172.3289795  26.9393539
  66.2327805 174.3166504  26.1271706  65.4440842 175.0684662  26.0985394
  67.0954819 174.8966064  26.4550419  66.5776291 174.0118561  24.6790829
  67.4323196 173.3378448  24.6213551  65.7571411 173.4202881  24.2729301
  66.8898697 175.5391235  23.7026634  67.4627838 174.8611450  22.1477089
  66.6978760 174.2707214  21.6433163  67.8745956 175.6720428  21.5469036
  68.3290329 174.2277985  22.3389778  65.7483902 173.4562836  28.5137882
  66.7520752 173.7795868  29.1602097  64.5424423 173.5660248  29.1072311
  63.6802330 173.4660492  28.5907974  64.3889465 173.8718567  30.4973202
  65.1944809 174.5157928  30.8502407  62.9120102 174.4368896  30.7206802
  62.2024155 174.0718689  29.9781570  62.6165047 174.1183472  31.7203331
  62.8422165 175.9662170  30.6270599  63.5713844 176.6954956  29.9942493
  61.8617287 176.5469818  31.2984447  61.8347588 177.5565643  31.2876301
  61.2139015 175.9344330  31.7730026  64.5079727 172.5831299  31.3238125
  65.2032242 172.6090851  32.3333588  63.7084465 171.5320282  30.9155674
  63.0720596 171.7119904  30.1522007  63.5134735 170.3177490  31.7633648
  63.5799370 170.6038666  32.8130417  62.1765633 169.7391510  31.4897900
  62.1863708 169.3820648  30.4599876  62.0255089 168.8870239  32.1524696
  60.9499397 170.6844330  31.7526608  60.8974800 170.7441254  32.8397598
  61.1412544 171.6491089  31.2826653  59.6405640 170.1115723  31.1937656
  59.6671867 170.0272675  30.1073570  59.4461823 169.1715546  31.7101555
  58.5889435 171.1672363  31.6745663  58.5392227 171.2242584  32.7619400
  58.9142380 172.1086731  31.2318687  57.2445564 170.7653656  31.2381649
  57.1000633 169.8059845  31.5188770  56.5513649 171.3842926  31.6337910
  57.2055130 170.9265900  30.2418804  64.5965652 169.2202759  31.4512424
  64.5640335 168.1662140  32.0641823  65.5942383 169.5237885  30.6279087
  65.5679398 170.3545380  30.0540829  66.7622299 168.7161407  30.5019798
  66.6473160 167.7291412  30.9500275  67.1548157 168.5910797  29.0230045
  66.3218994 168.1604767  28.4672031  67.3404083 169.6068268  28.6738529
  68.6745987 167.6136322  28.8885498  68.7193146 167.7283936  27.5582409
  67.8912201 169.3854675  31.4027805  68.0435867 170.5899353  31.5322266
  68.6403046 168.5279388  32.0764694  68.5044174 167.5344696  31.9554005
  69.6455154 168.8742065  33.1094208  69.9682007 169.8737946  32.8182335
  69.0097961 168.8940277  34.5088959  69.8227310 169.0611267  35.2155228
  68.0031357 170.0607300  34.7872467  67.0689774 169.8287201  34.2757492
  67.7798920 170.1441650  35.8508720  68.3848953 171.0429840  34.5088196
  68.3548737 167.6790924  34.7885590  67.8349991 167.8123627  35.5845261
  70.8893661 167.9523010  33.1360893  72.0659180 168.3777466  33.1703682
  70.6135559 166.6108246  33.0539284  69.6470795 166.3665771  33.2163010
  71.5476990 165.5058136  32.9584656  72.5923691 165.8077698  32.8836098
  71.5193024 164.7668457  34.2534752  71.7132645 165.4893646  35.0462189
  70.5728302 164.2404938  34.3769264  72.5181046 163.7573395  34.2376022
  72.3933487 163.2267151  35.0278397  71.2850800 164.5333405  31.7795868
  70.1414490 164.4160614  31.3634071  72.3513260 163.8982086  31.3003979
  73.2069092 164.0321808  31.8201389  72.2904968 162.8499146  30.2622528
  71.2440262 162.5547180  30.1857376  72.7769318 163.4550171  28.9057617
  73.8117142 163.7367706  29.1005669  72.8380890 162.7203979  28.1028366
  72.0536346 164.7241974  28.4096470  71.9136353 165.5225372  29.1384621
  72.8286667 165.4431152  27.2703495  73.2579193 164.7238617  26.5728340
  72.1548691 166.1014557  26.7220039  73.6138153 165.9963226  27.7857208
  70.6768646 164.4952087  27.7843361  70.1361923 163.9277802  28.5418243
  70.2821579 165.4959869  27.6089687  70.8228073 163.9162292  26.8724270
  72.9987717 161.5521393  30.6308746  74.2638474 161.4830627  30.8161259
  72.1516342 160.5083618  30.7677250  71.1628265 160.6580811  30.6265373
  72.6018143 159.1921234  31.2289619  73.6225052 159.3283997  31.5863342
  71.7641754 158.8076782  32.4251518  70.7450256 158.7202454  32.0486107
  72.1002502 157.8062592  32.6940956  72.0031204 159.9614563  33.8414192
  71.0339127 159.4649048  34.6153488  72.6673889 158.0448761  30.1250267
  72.2413788 158.1595306  28.9576778  73.4106140 156.9653015  30.4393959
  73.7310638 156.8766327  31.3930988  73.4579926 155.7538605  29.5910473
  73.5604477 156.0707397  28.5531712  74.6350632 154.8206635  29.8728790
  75.4770584 155.3647614  29.4449711  74.7821503 154.7464294  30.9503555
  74.4180908 153.1534882  29.1548786  75.6979141 152.7815704  29.0619907
  72.0792465 155.0342102  29.6444168  71.4902573 154.8233795  30.7232895
  71.5927124 154.5240936  28.4968853  72.1518326 154.6560822  27.6661892
  70.2401047 153.8438416  28.4519844  69.5175934 154.4305878  29.0192585
  69.8053818 153.7203979  26.9649258  69.8913422 154.6695404  26.4359245
  70.5366135 153.0476379  26.5168266  68.3481369 153.2960358  26.8304157
  68.2982941 152.2196808  26.9948845  67.7412338 153.8785400  27.5235691
  67.7892075 153.6126404  25.3986435  68.5215530 153.2847443  24.6609116
  66.8866806 153.0014801  25.3939018  67.5026779 155.1413727  25.1452236
  66.6351318 155.3352051  25.7760162  68.2983551 155.7630768  25.5556812
  67.1300507 155.5375977  23.7060490  66.4052277 154.9538727  23.3136482
  66.9212112 156.5251007  23.6692562  67.9320297 155.4253998  23.1024361
  70.2359009 152.4615479  29.1077900  69.2512665 152.0389557  29.7381935
  71.3853455 151.7164917  29.0427723  72.2106247 152.0629883  28.5748501
  71.4559555 150.3865967  29.6819115  70.4988022 149.9190369  29.4509773
  72.6105576 149.6128082  29.0247364  72.2759399 149.5430908  27.9897118
  73.5348358 150.1899567  28.9981403  72.7778854 148.1086884  29.5164413
  73.3040848 148.0960846  30.4709339  71.8207397 147.5897217  29.5679035
  73.4812851 147.1932373  28.5018044  73.9569931 147.5595398  27.3745403
  73.7349701 145.9562836  28.9304409  74.1784515 145.2705994  28.3360806
  73.3116684 145.5289917  29.7418251  71.5194473 150.4373169  31.1987419
  71.0867844 149.4891205  31.9237785  72.0893021 151.4867401  31.8121090
  72.5258713 152.1925049  31.2364292  71.9410400 151.7653809  33.3169365
  71.9025574 150.7907562  33.8034897  73.2275162 152.5161591  33.7072334
  73.1233368 153.5511169  33.3814545  73.2993469 152.4598541  34.7934074
  74.7366257 151.7470856  32.9980011  75.4003983 151.6254883  34.1510429
  70.7207413 152.5205383  33.7002907  70.1617203 152.3291016  34.8264008
  70.2308731 153.3575745  32.7691307  70.6989746 153.4675751  31.8809357
  69.3819275 154.5786285  33.0318413  69.3657227 155.0726013  32.0603333
  67.9221649 154.1649170  33.3136177  67.8835678 153.5633698  34.2217865
  67.2960052 155.0544281  33.3827591  67.4204407 153.2032776  32.2290344
  67.9910889 153.3935547  31.3200512  67.7736435 152.1968384  32.4535980
  65.8807678 153.1323700  32.2024651  65.1321411 153.3575134  33.1438446
  65.3729782 153.1118164  31.0240192  64.3774719 153.2770233  30.9818172
  65.9646301 153.0956879  30.2056160  69.9621201 155.5673981  34.0962448
  69.9481049 156.7544250  33.7797012  70.3863068 155.0913544  35.2623291
  70.2346954 154.1130829  35.4626083  70.7503357 155.9620819  36.3899841
  70.0076752 156.7559509  36.4695587  70.7100830 155.0374146  37.6207199
  70.8527222 155.6962738  38.4772606  69.7819443 154.4665222  37.6479492
  71.8078690 153.9575348  37.6873970  72.5983047 153.8860474  36.7402649
  71.7875061 153.1359863  38.6147766  72.1021957 156.6588745  36.3074989
  72.4262314 157.4938354  37.1885223  73.0048599 156.2443085  35.4259415
  72.7374954 155.4519196  34.8595924  74.4307098 156.6395874  35.4543114
  74.6976013 156.8043823  36.4982071  75.2913361 155.5190887  34.9694672
  74.9944687 155.2596588  33.9532623  76.7477417 155.9381561  34.9127655
  77.0714951 156.1565857  35.9304008  77.3357773 155.0714264  34.6109657
  76.9395905 156.7965393  34.2689667  75.3392105 154.2834473  35.7120094
  74.4776840 154.1489868  36.1136208  74.6329117 157.8724976  34.6067123
  74.4414978 157.8901215  33.3768196  75.2173920 158.8965759  35.1839294
  75.3613815 158.8719177  36.1833076  75.4883957 160.1903992  34.5227814
  74.6362457 160.4042206  33.8776245  75.4524994 161.3872833  35.5284195
  74.4557800 161.3922424  35.9695816  76.1757660 161.1591644  36.3113289
  75.7777100 162.7891846  34.9035759  76.7303009 162.6536102  34.3914375
  75.0649414 163.0108490  34.1092682  75.9575424 163.9404297  35.9741821
  76.2209702 163.6199799  37.1622925  75.9455261 165.1487122  35.6205711
  76.7931442 160.1401367  33.6841507  77.8676300 159.8626404  34.2019806
  76.6509781 160.3351135  32.3383369  75.7374268 160.6182709  32.0137634
  77.8348312 160.4442139  31.4621449  78.7597122 159.9897461  31.8173180
  77.4902573 159.8200531  30.1201534  76.4086380 159.8613739  29.9917507
  78.1482697 160.5160522  28.9174500  79.1985550 160.4609222  29.2037334
  77.9849548 159.9206696  28.0191479  77.8138123 161.5525665  28.8739548
  77.7976456 158.3030090  30.0724621  77.4175186 157.7796021  29.1951637
  78.8805084 158.1885529  30.0232506  77.1800613 157.4003448  31.1340408
  76.1276779 157.5449219  31.3783646  77.5578690 156.4078674  30.8884144
  77.6093292 157.6559143  32.1028137  78.1813278 161.9089966  31.3667850
  79.3538055 162.1793671  31.3071098  77.2191544 162.8400116  31.1680984
  76.2556610 162.5588074  31.0553780  77.5450745 164.2942657  31.0227547
  78.3557816 164.4945068  31.7232952  77.9773331 164.6291046  29.5561981
  78.8404007 164.0308228  29.2641602  76.8103256 164.4862671  28.5554886
  75.9954910 165.1937561  28.7091160  77.1362228 164.5807800  27.5196495
  76.3194351 163.5283508  28.7272434  78.3923340 166.0216980  29.5073204
  79.3357697 166.0834351  29.6738071  76.3235550 165.1620483  31.5130882
  75.1492920 164.7389832  31.5314751  76.5545502 166.4150696  31.8828964
  77.4956894 166.7535553  31.7422409  75.5444260 167.4752655  32.2025642
  74.5847473 166.9913330  32.3840179  76.0115433 168.3285980  33.3691826
  75.9181137 167.8030853  34.3195572  77.3782883 168.9635925  33.3058929
  77.3079529 169.6101074  32.4311562  77.5413284 169.5420380  34.2152443
  78.2168808 168.2794647  33.1761589  75.1401596 169.4443512  33.4229240
  74.5843887 169.2574768  34.1830482  75.2207794 168.3592224  30.9453983
  76.1346817 168.5751190  30.1033897  74.0738831 168.9385071  30.9070072
  73.4485931 168.7094574  31.6663876  73.5869751 169.9761810  29.9758358
  73.3546448 169.4923248  29.0271473  72.3604736 170.7099304  30.5491352
  71.4749298 170.0751190  30.5797176  72.6154709 171.1108398  31.5301285
  72.0045547 171.8826294  29.6062508  72.8328476 172.5895081  29.6547050
  71.9085617 171.4961548  28.5915966  70.6612778 172.5013275  30.0305519
  69.8413010 171.8233185  29.7937870  70.7334061 172.6399536  31.1092911
  70.3789291 173.8378448  29.2622280  71.2907867 174.4321289  29.2034473
  70.0685272 173.6009216  28.2445774  69.3020401 174.6427155  29.9549007
  69.4311523 174.9457550  30.9096775  69.1367722 175.4920654  29.4339466
  68.3970718 174.1962433  29.9125881  74.8218613 171.0404510  29.6932831
  75.0289764 171.4501190  28.5455132  75.5794144 171.4310913  30.7015533
  75.4371719 170.8991547  31.5482559  76.6082611 172.4712830  30.6851864
  76.1731873 173.2918396  30.1146564  76.8884583 172.9065704  32.1147537
  77.3746185 172.1425934  32.7214546  77.4739304 173.8255005  32.0848618
  75.6207733 173.3448639  32.8188553  74.9488983 174.3146973  32.3802948
  75.1923294 172.6451721  33.8000221  74.2617493 172.8589478  34.1292992
  75.6985168 171.9069519  34.2679024  77.9113846 172.1450195  30.0108871
  78.6474991 173.1238098  29.6524143  78.1664963 170.8972931  29.7300053
  77.6178589 170.2125397  30.2302208  79.3348389 170.5051422  28.8994064
  80.1186066 171.2381439  29.0904827  79.8184509 169.1359863  29.1836548
  79.0408936 168.4157410  28.9292049  80.7239456 168.8701324  28.6382160
  80.0910187 168.9184418  30.6534958  79.1150894 168.8306427  31.1309338
  80.4834976 167.9047852  30.7346783  80.9723969 169.9832001  31.3691692
  81.6727676 170.7421570  30.6640072  81.0129547 169.9276886  32.6450615
  79.0999603 170.5712433  27.3687668  80.0145340 170.4049225  26.6042004
  77.8977966 170.8399048  26.9927044  77.1983337 170.8723297  27.7205772
  77.3678589 170.8479614  25.6079731  77.6039886 169.9284821  25.0723476
  75.8146286 170.8419037  25.4743118  75.3791962 171.7001343  25.9861012
  75.5549545 171.0268097  23.9707146  76.0725708 170.2289886  23.4381371
  74.5003967 170.9430695  23.7080288  75.9204025 171.9624634  23.5475006
  75.2836990 169.5215454  25.9805355  75.7635880 168.7722778  25.3509369
  75.5888672 169.4288330  27.0228291  73.7748184 169.4214325  25.8396339
  73.4908600 169.4710693  24.7884388  73.3793488 168.5178375  26.3035469
  73.2995071 170.2290192  26.3963909  78.0013657 172.0621338  24.9085941
  77.9095764 173.2465210  25.3684082  78.6618423 171.7577362  23.7657948
  78.7112045 170.7802429  23.5164337  79.2228394 172.7548370  22.8965893
  78.6322403 173.6502991  23.0900879  80.7288818 173.0752258  23.2399406
  80.9267349 174.1388702  23.1072502  80.8595886 172.8869476  24.3055744
  81.8124619 172.2841339  22.5204391  81.7865219 170.8871765  22.6657372
  80.9776535 170.4043274  23.1939335  82.7577362 170.0560608  22.1031761
  82.8281937 168.9814606  22.1848583  83.8563004 170.6537933  21.4539433
  84.6534500 170.0864716  20.9966717  83.8925323 172.0597534  21.2502174
  84.6801147 172.5394440  20.6880665  82.8937454 172.8576202  21.8341732
  82.9153442 173.9311218  21.7178574  79.0028381 172.4341431  21.4072399
  78.9316864 171.2751465  21.0020084  78.7973404 173.5130463  20.6328392
  78.8119965 174.4407806  21.0318222  78.6633148 173.3921051  19.2027130
  78.1683350 172.4346924  19.0400200  77.8175659 174.4721222  18.7430553
  78.1554794 175.4916077  18.9289951  77.7099152 174.3154907  17.6697559
  76.5558853 174.3314362  19.3773365  76.0533981 175.1257172  19.1818180
  80.0530090 173.3509674  18.4587193  80.5846176 174.3801880  18.0626011
  80.6482239 172.2025299  18.2768536  80.2411880 171.3715057  18.6815853
  81.8791504 172.0153656  17.4533501  82.5899429 172.8018646  17.7069073
  82.4147263 170.6663208  17.8953056  82.6317596 170.6719971  18.9634647
  81.6401672 169.9156799  17.7381496  83.7247543 170.2838135  17.1703815
  83.6217422 170.4346924  16.0958004  84.9221878 171.0805359  17.7573681
  85.0021133 170.8551331  18.8208065  85.8375702 170.7330170  17.2784100
  84.9024353 172.1625366  17.6269608  84.0275345 168.8167114  17.3344231
  83.2962265 168.2818604  16.7284431  85.0309753 168.5840912  16.9779053
  84.0601273 168.4267883  18.3517685  81.5680847 172.1309814  15.9374266
  82.4299240 172.5086823  15.1471310  80.2597427 171.8490295  15.6152067
  79.5972443 171.6723938  16.3568287  79.7398605 171.8977203  14.2287273
  80.5714951 171.7428131  13.5413513  78.7076111 170.8129883  14.0590982
  79.0930328 169.8076172  14.2287512  77.8728027 170.8960266  14.7550097
  78.2352753 170.7584381  12.7465181  78.2854919 169.8833160  12.3550587
  79.0263977 173.2162170  13.9902611  78.4092484 173.7854767  14.8627911
  78.9712067 173.6288300  12.7286186  79.3646851 173.0135498  12.0309687
  77.9600220 174.5759277  12.2413120  77.8220367 175.4417572  12.8889179
  78.4897385 175.0743103  10.8452749  78.8152084 174.2062836  10.2719593
  77.5912781 175.2056885  10.2422771  79.3982315 176.2934113  10.8292894
  80.3977737 175.9398499  11.0823040  79.3597565 176.7735596   9.3767815
  78.3674164 177.1474762   9.1246748  80.1678543 177.4838562   9.2019663
  79.5198517 175.8946075   8.7523603  78.9749374 177.4769287  11.7041368
  79.2317123 177.2765198  12.7443323  79.5415955 178.3728027  11.4503727
  77.8984375 177.6060181  11.5919399  76.4998322 173.9821472  12.0532684
  75.5576706 174.8080444  12.0069294  76.2631683 172.7136230  12.2835846
  77.0674133 172.1148071  12.4049511  74.9608536 172.1709290  12.5846453
  74.1739578 172.7467804  12.0975180  74.8444138 170.7726440  11.9969606
  75.7090454 170.1938019  12.3216982  74.0270767 170.2131958  12.4520159
  74.6095428 170.8651581  10.1784534  74.3750687 169.5520477  10.1029997
  74.5442276 172.3513641  14.0559177  73.4439621 171.9428864  14.4792204
  75.4199295 172.8503571  14.9283028  76.3121567 173.1904449  14.5990915
  75.2174454 173.1735077  16.3268356  75.6273804 174.1602173  16.5423489
  74.1403656 173.2086792  16.4904613  75.8712463 172.1281128  17.2917690
  76.9858170 171.7758789  16.9243164  75.3051682 171.6744690  18.4125328
  73.9895477 172.0573578  18.8015938  73.2845154 171.9137878  17.9828091
  73.9136353 173.1216278  19.0244942  73.5995102 171.2130432  19.9381714
  73.2595444 170.2210083  19.6408310  72.9321289 171.5986023  20.7089119
  74.9857941 170.9273224  20.5623245  74.8928299 170.0569916  21.2119141
  75.3204880 171.7775574  21.1566143  75.8902435 170.7302704  19.3620777
  76.9009628 170.9851074  19.6808262  75.9897842 169.2491302  18.9146042
  76.4823380 168.4280701  19.6387596  75.5086975 168.8759155  17.7238541
  75.0513306 169.6316833  17.2342396  75.2957764 167.5002289  17.3221149
  76.1948700 166.9593353  17.6173515  74.0763702 166.9800262  18.1116924
  74.2089615 167.1598969  19.1785412  73.2330399 167.6119537  17.8332253
  73.6816711 165.5068970  17.9400444  73.4804993 165.3300323  16.8834705
  74.4926376 164.8683777  18.2903652  72.2658844 165.0799255  18.8767204
  70.9901505 165.5787964  17.7431965  71.2140884 164.9245758  16.9006138
  69.9911423 165.3814850  18.1319828  71.0406952 166.6323242  17.4681549
  75.0449295 167.4176941  15.8519278  74.3247986 168.2369690  15.3135080
  75.5662231 166.3996429  15.1627016  76.1534500 165.7003021  15.5942106
  75.2144089 166.1469727  13.7707024  74.1765213 166.4282990  13.5925465
  76.0920486 166.9739380  12.7976475  77.0558014 166.4947052  12.6255713
  75.6122818 167.0310059  11.8205748  76.1812592 167.9708862  13.2291918
  75.2665863 164.6396332  13.4854078  75.3271637 163.8484039  14.4014025
  75.2408752 164.2339478  12.2118101  75.3485336 164.9902039  11.5510626
  75.1446915 162.8703156  11.7577171  75.0866241 162.2760925  12.6696529
  73.8219376 162.6603699  10.9916420  73.8486710 163.2614136  10.0827293
  73.8331757 161.6369476  10.6166935  72.9262009 162.8185120  11.5922613
  76.4179306 162.4982147  10.9284477  76.7350235 163.2377014  10.0240984
  77.0322571 161.3744049  11.2040043  76.7830734 160.9180908  12.0698996
  78.2606506 160.9175873  10.5427828  78.3350067 161.3042755   9.5263948
  79.4329224 161.4730225  11.3637695  79.4193039 160.8717957  12.2728539
  80.3756561 161.3344574  10.8344870  79.4068832 162.9714508  11.6745501
  79.5924835 163.8862915  10.5771999  79.7232437 163.5283813   9.5666485
  79.6650696 165.2190094  10.8799620  79.7731934 165.9180908  10.0638704
  79.4794159 165.7462006  12.1235771  79.5477524 167.1147919  12.3527088
  79.4025116 167.6478119  11.5675964  79.3029480 164.8726501  13.2294941
  79.2776413 165.2543640  14.2394714  79.2501831 163.4514618  12.9903727
  79.1169739 162.7608490  13.8099442  78.3300247 159.4051361  10.5574646
  77.7446899 158.6688232  11.3705559  79.1522446 158.8560944   9.6666965
  79.6488037 159.5263367   9.0972080  79.2153015 157.4221802   9.3752384
  78.7216110 156.8533020  10.1631136  78.5263672 157.0525513   8.0351086
  78.4202805 155.9678192   8.0204439  77.1803360 157.7159271   7.9605284
  77.2043762 158.7985687   7.8363819  76.5381241 157.2117920   7.2383733
  76.6526718 157.4861603   8.8862076  79.2531891 157.4571228   6.7350678
  80.0608521 156.7307434   6.6448236  78.4951782 157.3256378   5.9629030
  79.6853790 158.4574432   6.7090306  80.6271896 156.8250580   9.3526297
  81.5509644 157.3663788   8.7801580  80.7834702 155.5721588   9.8407736
  79.9945679 155.1291046  10.2895994  81.9743652 154.7338715   9.6663084
  82.7997208 155.4340210   9.7955523  81.9202271 153.7160645  10.8636026
  82.8775558 153.2169952  11.0137644  81.7082138 154.3311920  11.7381191
  80.7542267 152.6756134  10.8042049  80.0215912 152.4870148   9.8625374
  80.6669312 151.7736664  11.7570248  79.9312668 151.0816803  11.7498198
  81.4238739 151.8045807  12.4249945  81.9927292 154.1097565   8.2492371
  80.9980469 154.2151642   7.4797945  83.1427307 153.3945618   7.9477358
  84.4023819 153.2556305   8.7737980  84.2954559 152.3587646   9.3839598
  84.7752914 154.0947571   9.3610954  85.4575806 152.8958282   7.7517142
  86.2486572 152.3500214   8.2659149  85.7914276 153.7444000   7.1545863
  84.6948242 152.0396881   6.7725329  84.6052628 151.0099335   7.1184654
  85.2178192 152.1139069   5.8190823  83.3583527 152.6914368   6.6756167
  83.4248886 153.4686584   5.9142990  82.2639084 151.6654358   6.2922192
  82.0316010 151.2374573   5.1942430  81.6259308 151.2516327   7.3240581
  81.9163589 151.5994873   8.2266884  80.5891724 150.1978760   7.2737451
  80.6680527 149.5238953   6.4207335  80.5624695 149.3087921   8.4633512
  80.1359940 149.9012146   9.2728357  79.9407654 148.4507141   8.2078466
  81.9258804 148.8193207   8.8935852  82.8724594 149.5875092   9.6043701
  83.9073715 148.7946472   9.8289146  84.8174133 149.1020508  10.3225899
  83.6830292 147.6015015   9.2411222  84.3261719 146.8238831   9.2833595
  82.4234695 147.5960236   8.6820631  81.8718719 146.8016815   8.2012968
  79.1908112 150.8486633   7.0838070  78.2069244 150.1470795   7.1698518
  79.0485001 152.1740112   6.8093481  79.8533630 152.7464142   7.0206671
  77.7487946 152.9134369   6.5110745  78.0590744 153.9403381   6.3179069
  77.2849503 152.4831696   5.6234846  76.7821045 153.0569763   7.6639171
  75.8653030 153.8603821   7.4724627  76.9694977 152.4972839   8.8737192
  77.7313461 151.8436127   8.9851494  76.1303024 152.8547516  10.0406008
  75.0998917 152.6941681   9.7234840  76.4888992 151.9179840  11.1973238
  76.5383377 150.8936310  10.8280640  77.4546432 152.1888733  11.6240082
  75.3439026 151.9426117  12.3018055  74.2479248 151.0881348  12.1716795
  74.1928940 150.4281311  11.3185902  73.2653580 151.0431671  13.2337389
  72.4191208 150.3733521  13.1932011  73.3822861 151.9195557  14.3121653
  72.4934692 151.9736176  15.3288727  71.8376846 151.2730255  15.3555555
  74.3967972 152.8946228  14.2963238  74.3958511 153.6322784  15.0851536
  75.4222107 152.9272614  13.3300667  76.1463394 153.7283478  13.3469448
  76.2888565 154.3260040  10.5170698  77.4062347 154.8661957  10.3435745
  75.1457138 154.9546661  10.9484682  74.3957825 154.2825470  11.0255613
  74.9774780 156.4301758  11.1262741  75.9005661 156.8758392  10.7555962
  73.8425217 157.0722656  10.2710371  72.9656677 156.6842041  10.7893324
  73.9583435 158.6001740  10.4315777  74.8633347 158.9800568   9.9574451
  73.0603638 159.0299988   9.9877462  73.8977737 158.8936462  11.4795809
  73.7769012 156.6771393   8.7522898  74.0769882 157.4851837   8.0851135
  74.4581223 155.8687439   8.4866924  72.3124161 156.4017487   8.2910147
  71.8767929 157.4004822   8.2614622  72.3094482 155.8390198   7.3575187
  71.7903595 155.8330078   9.0604830  74.9330673 156.6550293  12.6254797
  73.8799438 156.4774017  13.2416563  76.0999298 157.0743256  13.1171007
  76.8304062 157.2321014  12.4376869  76.3000565 157.5308380  14.4709072
  75.5982132 156.9770813  15.0945015  77.7170715 157.2390442  14.9824362
  78.4422836 157.7512360  14.3501320  77.8154678 157.5092926  16.0338097
  78.0493698 155.8166351  14.9258013  77.6163712 154.7685547  15.7690191
  78.1651077 153.6338501  15.2857571  78.0158005 152.6242828  15.6391096
  78.9349213 153.9511414  14.2041235  79.5018463 153.2626648  13.7301102
  78.7740936 155.2877808  13.8946152  79.2758102 155.8229523  13.1019793
  75.9610062 159.0197296  14.4993553  76.4921722 159.8579865  13.8439541
  74.8878098 159.3884888  15.2536478  74.4600372 158.6856384  15.8394146
  74.5340958 160.7838898  15.5866728  75.0698166 161.4302368  14.8914509
  72.9805374 161.0716553  15.6991787  72.5727768 160.3323212  16.3885326
  72.8051529 162.0834503  16.0647030  72.1977386 160.9586639  14.3622427
  72.7059021 161.5151367  13.5747099  72.3709183 159.9290924  14.0490141
  70.6749344 161.2046509  14.4682455  70.1183472 161.0014191  15.5901060
  70.0859985 161.5852814  13.4334345  75.1890640 161.1217041  16.9315681
  74.8449707 160.5185242  17.9164524  76.1431198 162.0404358  16.8906498
  76.3591385 162.5858002  16.0684490  77.0256653 162.2546082  17.9776497
  76.8084030 161.5479736  18.7786369  78.4875870 161.8923492  17.6674328
  79.1270447 162.1411591  18.5143604  78.7243500 160.3778687  17.4790058
  78.1526413 160.0248108  16.6207581  79.7482986 160.1014252  17.2276134
  78.3166580 159.8526611  18.3427505  78.9656525 162.4711151  16.5016727
  79.7599945 161.9620209  16.3243313  76.8521805 163.6549225  18.5125866
  76.8659592 164.6672516  17.8024731  76.6618271 163.6907349  19.8410912
  76.6596832 162.8319244  20.3726349  76.6256638 164.9435577  20.6472397
  76.2192001 165.7981567  20.1063766  75.7413712 164.6963501  21.8649940
  74.7538071 164.5454407  21.4290524  76.1680145 163.8460693  22.3970776
  75.6362000 165.9355164  22.7948380  76.6606445 166.2336426  23.0178757
  74.8088989 167.1865387  22.2184563  73.9925079 166.8091431  21.6026821
  74.5467300 167.9752350  22.9236755  75.4181137 167.7308807  21.4968967
  74.9842072 165.5996399  24.1347351  75.4980850 164.6920013  24.4513168
  75.1007614 166.4524384  24.8035069  73.9309311 165.3275604  24.0662689
  78.1343384 165.3071594  21.0504684  78.7464066 164.4847107  21.7278900
  78.6242065 166.4838104  20.7603722  78.0984268 167.1857147  20.2593899
  79.9760818 166.9936981  21.2126160  80.6138611 166.1289215  21.3956146
  80.7012100 167.8451080  20.1462669  81.5759430 168.3639069  20.5384254
  81.1801147 166.8081970  19.0849380  80.2857971 166.2798309  18.7546158
  81.6490707 167.4645233  18.3518581  81.9975586 166.1512756  19.3821774
  79.9197617 168.8124084  19.5148010  79.2910690 169.2090149  20.1222916
  79.7995300 167.7934723  22.5458374  78.9772720 168.7334595  22.6221275
  80.6213303 167.3747864  23.5106564  81.2890778 166.6612091  23.2556591
  80.7185135 167.9622345  24.8446465  80.3499527 168.9853210  24.9191933
  79.8471451 167.0986633  25.7933178  79.7942200 167.6743011  26.7174187
  78.3672256 167.0596466  25.3913097  78.3553925 166.4404297  24.4943600
  77.7131195 166.6938324  26.1827927  78.0129166 168.0513153  25.1099739
  80.3168030 165.6923523  26.0742531  81.3380051 165.7575531  26.4497547
  79.7310104 165.2820282  26.8967915  80.2850647 165.1212006  25.1464233
  82.1546707 168.0255280  25.2765503  82.9827118 167.1606903  24.9018154
  82.4687576 169.0785980  26.0189171  81.8263245 169.8406830  26.1820526
  83.8832855 169.2059174  26.5336628  84.5623779 169.1524658  25.6827374
  84.1416779 170.4581604  27.3128510  83.4824905 170.5811005  28.1721878
  85.1588974 170.3649139  27.6932182  83.9954987 171.7473907  26.5199966
  84.9490738 172.0140991  25.5279026  85.7825699 171.3344879  25.4288483
  84.6727600 173.1015625  24.6205101  85.2737732 173.2701263  23.7391605
  83.5968552 173.9660645  24.8823414  83.4601898 175.0608978  24.0953827
  84.0934296 175.0223846  23.3748837  82.8069305 173.7665100  25.9894505
  82.0665894 174.5393829  26.1342354  83.0128479 172.6590118  26.8335152
  82.3236847 172.4148712  27.6284027  84.2047043 168.0850983  27.5315437
  85.3661041 167.7085724  27.6521053  83.2158585 167.5777435  28.2205524
  82.3058472 168.0106354  28.1528778  83.4554901 166.5522156  29.3186169
  84.4468842 166.1078796  29.2303181  83.6699982 167.4517059  30.6130714
  84.4390717 168.1931152  30.3964481  82.6876144 167.8636322  30.8440590
  84.0752563 166.6957550  31.9119473  83.3242798 165.9499969  32.1726761
  85.0527954 166.2475739  31.7340660  84.2421417 167.7164154  33.0437927
  85.0050964 168.4526367  32.7908401  83.3149643 168.2730560  33.1801987
  84.5450974 167.0404663  34.3946495  84.3878326 167.7618103  35.1965446
  83.7948990 166.2635956  34.5422668  85.9378510 166.5415955  34.5110931
  86.6291046 167.1892700  34.1607018  86.2126694 166.4035492  35.4731331
  86.1040573 165.6751404  34.0194206  82.4449615 165.4102783  29.3826752
  81.2805328 165.5618744  29.0431156  82.9612961 164.2622375  29.7936897
  83.9543381 164.2286224  29.9749050  82.1940689 163.1388245  30.4068203
  81.2543793 163.5170898  30.8093262  81.7569046 162.2453613  29.2420807
  82.7353821 162.0082245  28.8244019  81.1839218 161.3672638  29.5399303
  81.1218414 162.8815613  28.6256046  82.8771133 162.4358521  31.6105137
  84.0540314 162.5629272  31.8258972  82.0409393 161.7331085  32.4551125
  81.0526047 161.6935272  32.2508392  82.4511414 161.3252411  33.8089600
  83.4359741 161.7660065  33.9636650  81.5558548 162.1197662  34.8060226
  80.4830399 161.9468689  34.7207222  81.8321152 161.8272247  35.8190422
  81.6957092 163.9484711  34.5608139  80.8881073 163.9680634  33.4967194
  82.5203552 159.8955078  34.1124229  83.6686554 159.4188690  34.3329010
  81.4574356 159.0956421  34.0096474  80.5940704 159.5735626  33.7945290
  81.3630676 157.6585083  34.1238136  82.1573715 157.3270721  34.7926445
  80.0276794 157.2383423  34.7867126  79.1622925 157.5346375  34.1939163
  80.0761948 156.1664581  34.9785614  80.0355377 157.8239594  36.2027245
  80.8623886 157.5084686  37.0567741  79.1754074 158.7488708  36.5062027
  79.1676102 159.0915985  37.4562416  78.6065292 159.2036743  35.8064690
  81.5546646 156.8530121  32.8088074  80.7791138 155.9276276  32.4301987
  82.7078323 157.0422211  32.1885605  83.3072662 157.7704620  32.5497398
  83.0463638 156.3303986  30.9731236  82.3725815 155.5122833  30.7185631
  83.2253952 157.2839203  29.8519497  83.8515930 158.1105957  30.1875134
  83.7103882 156.8084106  28.9994469  81.9176941 157.8455505  29.2841110
  81.4824982 158.4134827  30.1064072  82.0802307 158.8063049  28.0885334
  82.4137344 158.2856445  27.1908798  81.1695938 159.2945251  27.7414284
  82.8151398 159.5825348  28.3017750  80.9980927 156.7966614  28.7948284
  80.6011658 156.2352753  29.6406307  80.1258621 157.2415771  28.3159142
  81.3467789 156.1264496  28.0091305  84.4463654 155.7458344  31.1213741
  85.3370590 156.3299408  31.7413960  84.7011795 154.5462494  30.5912933
  83.8738480 154.1987305  30.1277847  86.0313416 153.9351501  30.4602890
  86.7710342 154.5477142  30.9757805  86.0470200 152.4354858  31.0419407
  85.3256149 151.8912506  30.4324436  87.0402756 152.0219574  30.8671780
  85.7941132 152.3100739  32.5918694  85.4562225 153.2342682  33.3265266
  85.9971466 151.0843201  33.0634041  85.8345108 150.9477692  34.0508270
  86.1286163 150.4276581  32.3073502  86.4306564 154.0143280  28.9514103
  85.6044540 154.3281708  28.0925980  87.7407837 153.7718048  28.7809544
  88.1999130 153.3152771  29.5561218  88.3950806 153.8520966  27.5346851
  87.7045975 154.2323761  26.7818813  89.5884018 154.7926941  27.6707382
  90.2873764 154.3101349  28.3538647  90.1133423 154.9142151  26.7232304
  89.3116455 156.2756042  28.1566105  88.9385529 156.2619476  29.1806774
  90.5893021 157.0392609  28.1109619  90.9741516 156.8944397  27.1014957
  90.5531616 158.0906677  28.3961277  91.2907181 156.6330566  28.8397503
  88.3544312 157.0396576  27.2011318  87.4984970 156.3766632  27.0749855
  87.9525986 157.9448090  27.6564560  88.8719101 157.3061523  26.2795620
  88.8107300 152.4246368  27.0481548  89.2748795 151.6635590  27.9038734
  88.7552338 152.2209167  25.7494793  88.1896973 152.8247528  25.1701183
  89.2834320 151.0274353  25.0164547  90.1401520 150.6862640  25.5976086
  88.2561264 149.9271851  24.8380337  88.6417160 149.0485535  24.3208923
  87.8975601 149.6102448  25.8173580  87.0508423 150.4096985  24.2262039
  86.2883377 149.9038391  24.5165253  89.8846283 151.4554749  23.6530533
  89.6662750 152.6260376  23.2704926  90.6072159 150.6042175  22.9520378
  90.7803192 149.6771698  23.3135643  91.2431564 151.0630493  21.7470207
  91.4887619 150.1368256  21.2275238  90.5541229 151.6370087  21.1274071
  92.5586090 151.8185425  21.8980408  93.1062622 151.9508362  22.9800739
  93.0302124 152.4213562  20.8105354  92.5820389 152.1721802  19.9403915
  93.9957352 153.5702209  20.8811436  94.0365067 153.8503723  21.9337387
  95.4203568 153.1262665  20.4092674  95.3594894 152.7897186  19.3743172
  96.0715408 153.9889832  20.2685566  96.1046219 152.1360779  21.3173885
  95.3533859 151.3685455  21.5035591  96.8868103 151.5733795  20.8078098
  96.6577454 152.7437897  22.6225605  97.4550476 153.4683838  22.4571266
  95.8573761 153.3291779  23.0751228  97.1644897 151.6824341  23.5242767
  98.1428986 151.4343109  23.5598068  96.5173798 151.1530457  24.5866375
  95.3036957 151.5129547  24.9339333  94.7805252 152.0200653  24.2344875
  94.7869797 150.9107971  25.5588455  97.1870804 150.4216614  25.3961582
  98.0534744 149.9902802  25.1074295  96.7649078 150.1301727  26.2661610
  93.5031738 154.7293243  19.9791279  92.8464050 154.4432526  18.9879818
  93.8898163 155.9916687  20.3224735  94.4867554 156.3594818  21.5697575
  95.5559387 156.1502838  21.5353775  93.9959183 155.8294830  22.3860226
  94.3191910 157.8545532  21.6718540  95.1081161 158.3658142  22.2235126
  93.3396912 157.9577789  22.1387939  94.3225250 158.3206329  20.2080307
  95.3224030 158.4399719  19.7907600  93.8722534 159.3081512  20.1071434
  93.6568375 157.1569061  19.5064068  92.5832367 157.3446808  19.4916897
  94.0595551 156.9344177  17.9981537  95.2269287 156.7845917  17.7167606
  93.0662994 156.8872833  17.1008472  92.1223297 156.8512878  17.4582329
  93.2351837 156.7287292  15.6793327  94.3000565 156.6816101  15.4514580
  92.6911545 155.3562317  15.2452812  93.3159256 154.6192627  15.7498989
  91.6487656 155.3092041  15.5604429  92.7557144 155.2562256  13.7919302
  92.8008499 154.3131409  13.6182976  92.6401901 157.8661499  14.8827047
  91.6069412 158.3653259  15.3011475  93.3042526 158.4245911  13.8365040
  94.2679825 158.1716309  13.6711912  92.8247299 159.5202026  12.9749355
  92.2309952 160.1997986  13.5862656  94.0170212 160.3352814  12.3170614
  93.5957794 161.1960602  11.7977123  94.9328995 160.9716949  13.4024334
  95.4445801 160.1173553  13.8455849  95.6830673 161.6376495  12.9759703
  94.3435287 161.4869537  14.1608887  94.7891693 159.3809357  11.5542011
  94.5586090 159.4988098  10.6297836  91.8631821 158.9244537  11.8015194
  91.2679672 159.6852264  11.0021811  91.7460480 157.5918121  11.7173796
  92.2930984 157.0051117  12.3310680  91.3272934 156.9624481  10.4245892
  91.7988358 157.5574341   9.6424465  91.8182831 155.5149078  10.5294828
  91.5201569 155.0626984  11.4753838  91.4855957 154.9014587   9.6921597
  93.3684311 155.4395142  10.4315615  93.9089737 156.0110321  11.1860771
  93.5813675 154.4210358  10.7563066  93.9712448 155.6113281   9.0136032
  93.6540070 156.5880737   8.2992802  94.8470764 154.8148193   8.6318302
  89.7990417 157.0812073  10.2266645  89.0117416 156.6963959  11.1070938
  89.3644028 157.6061249   9.0710411  90.0791321 157.7200165   8.3665581
  87.9287567 158.0428314   8.7649755  87.8796768 158.5064850   7.7797208
  87.0631409 156.7170105   8.6040554  87.7271729 155.9006348   8.3200226
  86.6474152 156.4242706   9.5682001  85.9534836 156.7405090   7.5599866
  84.5942535 156.6481323   7.7896361  83.9545593 156.9007263   6.6339827
  82.8898392 157.0084076   6.4884653  84.8354416 157.0156097   5.6470490
  84.5538101 157.0923157   4.6801481  86.0999832 156.8726349   6.2107840
  87.0602798 156.9086304   5.7178912  87.3348694 159.0656586   9.7803316
  86.1239853 159.1660156   9.8965311  88.1756668 159.7859192  10.4878531
  89.1715622 159.6213074  10.4533319  87.6375961 160.7303162  11.4830961
  86.9898605 160.1940613  12.1766100  88.7410202 161.5152283  12.2589312
  89.4275055 160.7903290  12.6963892  89.2943497 162.1059723  11.5289011
  88.0895691 162.3631592  13.2165890  88.7705688 162.8629608  13.6726847
  86.6695404 161.8646545  10.9496231  86.9344559 162.7550659  10.1899738
  85.4811554 161.9115601  11.5071859  85.3420181 161.3505249  12.3354340
  84.4214630 162.9317017  11.2974033  84.1084824 162.8079529  10.2606630
  83.2095566 162.4862823  12.1718712  83.4620743 162.5876617  13.2273598
  82.3621368 163.1395264  11.9639101  82.7674484 161.0508575  11.9298906
  82.8265915 160.4395294  10.7441416  83.2725220 160.8373260   9.8445320
  82.4209213 159.1210480  10.8621931  82.3154602 158.4890747  10.0814371
  81.9924622 158.8739777  12.1424675  81.6468735 157.6985016  12.8279829
  81.5793762 156.7238159  12.3677349  81.4056244 157.7534332  14.2276831
  81.3432465 156.8241577  14.7744446  81.4305038 158.9683075  14.9307251
  81.2672043 159.0232086  15.9969006  81.8387833 160.1441345  14.2430754
  82.0430527 161.0147552  14.8486443  82.1513290 160.0974579  12.8680773
  84.8100433 164.4327850  11.6127281  84.1591110 165.3737030  11.1916351
  85.9266739 164.6286316  12.2953320  86.4542313 163.8039398  12.5436506
  86.4412308 165.9100800  12.8663235  85.9364166 166.7505493  12.3900232
  86.1155090 165.8861847  14.4039888  86.7765961 165.1718292  14.8946600
  86.4040375 166.8583679  14.8036327  84.6986313 165.5834808  14.8523703
  83.5778275 166.3431549  14.3013124  83.6914825 167.1634827  13.6080961
  82.3131180 165.9539795  14.6320515  81.5186386 166.5141754  14.1615324
  82.0332565 164.9911194  15.5794096  81.0113525 164.8643799  15.9050617
  83.0658264 164.2080078  16.0586681  82.9278259 163.4199982  16.7842064
  84.3817825 164.5098877  15.6904068  85.1887131 163.9811707  16.1759148
  87.9736481 166.0258484  12.4854202  88.8486252 165.3415070  13.0791655
  88.3251343 166.9232941  11.5045309  87.5024185 167.4675140  10.4739017
  87.1117401 168.4298401  10.8046522  86.6439362 166.8571472  10.1935940
  88.4185562 167.5653381   9.2502861  88.0355377 168.2805328   8.5223417
  88.5345230 166.5790253   8.8010254  89.7314148 167.9637604   9.8291740
  89.8054657 169.0115967  10.1201611  90.5919113 167.7809601   9.1855774
  89.7148972 167.0650787  11.1003876  90.0206299 166.0846863  10.7350626
  90.7039032 167.4190216  12.1421871  90.5305557 168.3918304  12.8706331
  91.6922607 166.5391846  12.4353533  91.7372971 165.7460327  11.8116722
  92.8524323 166.7823639  13.3059311  93.7087784 166.1787567  13.0052176
  93.1053696 167.8412170  13.2513676  92.7386551 166.3559418  14.7388659
  93.6581802 166.6164551  15.5527220  91.7022324 165.6514587  15.1094437
  90.9690018 165.4680786  14.4394779  91.5748367 164.8944550  16.3859596
  92.4775696 165.2021942  16.9136677  90.3327713 165.3181152  17.2840252
  89.4960327 165.0473022  16.6401081  90.2949982 164.6804810  18.1672554
  90.2737732 166.8111877  17.7314873  90.4889221 167.0676270  19.0718384
  90.6913071 166.2773285  19.7795467  90.2694855 168.3861389  19.4759579
  90.2118988 168.5517883  20.5416260  89.8082581 169.3876801  18.6156902
  89.7124786 170.6916046  19.0682354  90.3217697 170.8218536  19.7985725
  89.5860062 169.0795593  17.2656631  89.1605988 169.8542023  16.6448917
  89.8466339 167.7634277  16.8154716  89.5203629 167.4679108  15.8292599
  91.6601181 163.3947601  16.0737476  91.0534363 162.9003296  15.1420441
  92.2399216 162.5761414  17.0190926  92.7955704 162.9931641  17.7521935
  92.2752991 161.1107178  17.0375309  92.0325241 160.6456604  16.0820827
  93.6532669 160.5934296  17.4031792  93.9312515 161.0173645  18.3681145
  93.6884842 159.5189362  17.5829697  94.4268799 160.8990936  16.6987782
  91.1757584 160.6233978  17.9430103  91.0897293 160.9850922  19.1400795
  90.2847443 159.7174225  17.4560204  90.3612518 159.3783417  16.5077229
  89.2276382 159.0603333  18.2152138  88.9603348 159.7856903  18.9836502
  87.9595642 158.7371368  17.2843990  87.1597366 158.2783051  17.8656521
  87.6223831 159.6908569  16.8784065  88.2410126 157.7706757  16.1592388
  88.4848557 158.1343994  14.8763771  88.4355087 159.1421967  14.4912558
  88.7590485 157.1018372  14.0765581  88.8696136 157.1316681  13.0730724
  88.7630615 155.9421387  14.7795401  89.0543671 154.6246948  14.4649391
  89.3569031 154.2518616  13.4975357  88.7327881 153.6336365  15.4542217
  88.9613800 152.6551361  15.0584049  88.2946625 153.9912262  16.7317944
  88.2544479 153.2836456  17.5467281  88.1429443 155.3609619  17.0387421
  87.9811859 155.6216736  18.0742435  88.3163910 156.3502960  16.0970669
  89.7566528 157.8109436  18.9122696  90.5558472 157.0518341  18.4102688
  89.0845490 157.5174103  20.0515175  88.6342926 158.3662262  20.3627834
  89.3572769 156.3521118  20.9243355  89.5837250 155.4987640  20.2851028
  90.6147079 156.5142365  21.8396645  91.4062805 157.0677643  21.3345699
  90.4136658 157.2621460  23.1520386  89.8302002 156.6474762  23.8374939
  91.3675079 157.5143585  23.6153584  89.7354965 158.0963440  22.9723186
  91.0636597 155.2746429  22.0592270  91.7691803 155.2228241  22.7081890
  88.0579376 155.9154510  21.5991020  87.1906967 156.7546844  21.9604111
  87.8045807 154.5899200  21.7599468  88.6265182 154.0032501  21.7412510
  86.4498444 154.0749054  21.9588814  85.8450851 154.6039124  21.2223244
  86.3712616 152.6399994  21.5052319  86.9611130 152.0164948  22.1771088
  84.9416428 152.1071930  21.6079426  84.3374557 152.5299225  20.8052311
  84.9641876 151.0189514  21.5501881  84.5008316 152.3667450  22.5704498
  86.9161148 152.5245514  20.0280800  86.4925613 153.3034821  19.3940716
  87.9668503 152.8115692  20.0690536  86.7728577 151.1122742  19.3882389
  85.7136230 150.9711914  19.1732616  87.2711105 151.0751953  18.4194908
  87.1375656 150.3454285  20.0716419  86.0391846 154.3317871  23.4015255
  86.8220825 154.0736542  24.3488369  84.8330841 154.8888550  23.5806828
  84.3681717 155.2511444  22.7604980  84.2248993 155.0073700  24.9382095
  84.9232941 154.7611694  25.7380466  83.7800598 156.4903564  25.0560379
  82.8193588 156.6523895  24.5672684  83.6910095 156.6040802  26.1364269
  84.5413666 157.1912537  24.7136059  83.0994415 153.9399719  25.1564465
  82.2931290 153.6134796  24.2631397  83.0598984 153.4758148  26.4110889
  83.7174072 153.8541412  27.0779095  82.0889282 152.6128387  27.0027695
  81.1930542 152.7568665  26.3988209  82.5711594 151.1486511  26.9684277
  83.5307617 151.1005096  27.4831524  81.9290009 150.5882111  27.6478653
  82.7225571 150.4561157  25.5490265  81.7153244 150.3836670  25.1387444
  83.3934479 151.0718994  24.9500160  83.5082397 149.1233673  25.7135525
  84.6870804 149.0677795  25.5067348  82.8372879 148.0771790  26.1480236
  83.2973099 147.1818390  26.2308540  81.8378906 148.1265106  26.2853813
  81.6168900 153.0563354  28.3539429  82.3359909 153.8109131  29.0561390
  80.4280624 152.5889282  28.7703648  79.7832718 152.2115021  28.0907421
  79.8689957 152.8895416  30.1048832  79.9025955 153.9688568  30.2534294
  78.3477707 152.5960693  30.0731411  77.8773346 153.1409760  29.2546844
  78.3772659 151.5087433  30.0025826  77.7443542 153.0778961  31.7195091
  76.4472427 152.8018188  31.5576878  80.6486435 152.1722260  31.2188263
  80.9615326 151.0001984  31.0915279  80.8534393 152.8377686  32.3885078
  80.4755936 153.7737274  32.3521614  81.7243652 152.4203339  33.4702263
  82.6378708 151.9966278  33.0529709  82.1295547 153.5984192  34.3071518
  82.7542496 154.2363586  33.6819305  81.2395630 154.1756287  34.5578918
  82.9475403 153.2433167  35.5186729  82.3182220 152.6632385  36.1936264
  83.7722015 152.5573425  35.3251381  83.4683304 154.5626526  36.1426773
  82.6259918 155.1544647  36.5009003  83.9655151 154.2650452  37.0658951
  84.4621887 155.2829895  35.2578430  84.8007355 154.6565552  34.5415611
  85.0163269 156.4896698  35.4792786  84.8998718 157.2573395  36.5552292
  84.3014755 156.9741821  37.3180161  85.4524460 158.1027679  36.5517769
  85.8519821 157.0180206  34.6069603  86.0615234 156.5631104  33.7298889
  86.4220047 157.7897339  34.9226189  81.1185379 151.1928253  34.1697350
  81.6941071 150.1160583  34.3907509  79.8420486 151.3598633  34.4945869
  79.4283295 152.2550964  34.2766304  79.0545807 150.2631836  35.1129303
  79.5680771 149.9320221  36.0155716  77.6941681 150.8375702  35.6109695
  77.2347412 151.3547821  34.7686386  76.7236633 149.7030182  36.0865898
  77.3040695 149.1441498  36.8206902  75.8033371 150.1172943  36.4982643
  76.3920212 149.0021057  35.3205376  77.8342743 151.9752197  36.6918869
  78.3727875 152.8540192  36.3371925  76.8461990 152.3296967  36.9854088
  78.5355530 151.5577087  37.9531708  79.6090469 151.6766510  37.8063583
  78.3914948 152.1787109  38.8373146  78.2636185 150.5214386  38.1538925
  78.9596710 149.0476379  34.1821861  79.1825256 147.8487396  34.5262756
  78.3591843 149.2769928  33.0087280  78.2667084 150.2224731  32.6657410
  77.6406784 148.2206268  32.2216721  77.5086441 147.2741394  32.7459335
  76.1877975 148.6774750  31.9739685  75.5920563 147.7890320  31.7645340
  75.8264008 149.1518555  32.8863602  76.1892776 149.8872986  30.6636429
  74.9338760 150.2820740  30.8938751  78.3693542 147.7704315  30.9363270
  78.0014343 146.7034760  30.4574051  79.4091492 148.4674683  30.4640636
  79.6575165 149.2813721  31.0081100  80.1417007 148.1331635  29.2044086
  81.1442490 148.5590820  29.2444305  80.2105484 147.0456543  29.1783962
  79.4451981 148.4223480  27.8648376  79.9935074 148.0717621  26.8296852
  78.3191605 149.1177368  27.8924637  77.9210510 149.4050293  28.7751160
  77.6641846 149.6273956  26.6005230  77.6057968 148.8183136  25.8724575
  76.2517624 150.1847839  26.8416557  75.6490936 149.4202576  27.3319664
  76.2802353 151.0742645  27.4710293  75.5573807 150.4114227  25.5116634
  75.1444626 149.4488678  24.8882351  75.3389435 151.6247559  25.1531906
  74.9057465 151.7021484  24.2440987  75.8630981 152.3842010  25.5638161
  78.5302582 150.6282501  25.9147091  79.1382141 151.4987488  26.5409622
  78.6122513 150.4788361  24.5959969  78.2736664 149.6180115  24.1905003
  79.3210297 151.4743652  23.7570934  80.3383865 151.5463409  24.1416759
  79.4419785 151.0177917  22.2904015  80.0257874 150.0978699  22.2586346
  78.4150085 150.8617249  21.9601269  79.9668503 152.0185242  21.3075085
  79.3599319 152.7089996  20.2383080  80.3159943 153.4916687  19.7359562
  80.1581192 154.2415771  18.9749641  81.4925385 153.2906494  20.3370075
  82.3461380 153.7976990  20.1515827  81.3326950 152.3637238  21.3214169
  82.1207657 152.0373077  21.9838352  78.6471405 152.8884125  23.8145523
  77.4150543 152.9690704  23.8084106  79.4275436 153.9472656  24.0460186
  80.4238892 153.8285828  23.9306602  78.9168854 155.3161621  24.3394108
  77.8394394 155.1710815  24.2608948  79.1223373 155.7032013  25.7877560
  80.1451340 155.4380493  26.0555058  79.0363083 156.7710571  25.9887085
  78.3316803 154.9070282  26.8043442  78.6852798 153.8834839  26.9284763
  78.4189224 155.3226471  27.8082104  76.5035477 154.7836914  26.5961056
  75.8920517 156.5216064  26.4972630  75.8486328 156.9477844  25.4949780
  74.8536530 156.5674133  26.8254738  76.5370712 157.1649933  27.0956688
  79.3300858 156.4159698  23.3446655  78.9667892 157.5622864  23.5403271
  80.0360641 156.0790558  22.3024292  80.2156754 155.0924988  22.1817265
  80.7319183 156.8604889  21.2949467  80.5988770 156.3853607  20.3230114
  80.3374863 157.8766174  21.2966137  82.1940994 156.8879395  21.6224651
  82.7760010 155.8152313  21.7567921  82.8689651 158.0672913  21.5043526
  82.2461853 158.8558044  21.4019165  84.3833694 158.1469879  21.3480873
  84.8296967 157.2403564  21.7566185  84.7988815 158.1527557  19.9186707
  84.4347534 159.0789795  19.4741268  85.8864441 158.1825867  19.8521309
  84.4273758 157.0619812  19.0431290  85.2435379 155.9552765  18.8424492
  86.2251587 155.7492371  19.2429047  84.6357498 155.0153198  18.0735550
  85.1177292 154.1949921  17.7346325  83.2822876 155.3942413  17.8990517
  82.2177963 154.8351593  17.2223110  82.3236694 153.8080597  16.9056454
  81.0232697 155.5686493  17.0697575  80.2308578 155.2046051  16.4326172
  80.8930588 156.8898926  17.5731468  79.9879074 157.3930206  17.2665977
  81.9718857 157.5181274  18.2545967  81.9344711 158.5267029  18.6390114
  83.1795654 156.7777405  18.3759041  84.8772888 159.4057007  22.0645771
  84.2465744 160.4798126  22.0219975  86.0941467 159.3593903  22.5867004
  86.6948090 158.5474396  22.5807571  86.8600235 160.5488892  23.1120510
  86.2292252 161.3947296  23.3854256  87.6429520 160.0868530  24.3864746
  87.0719757 159.6184235  25.1881294  88.2829361 159.2807312  24.0277519
  88.3943710 161.2596741  25.0788422  88.9351273 161.7933502  24.2972546
  87.6601410 161.9033051  25.5633430  89.3434372 160.8308868  26.2699413
  88.7804642 160.2594452  27.0079212  90.0578690 160.1634827  25.7880268
  89.9053574 162.0689240  27.0104084  90.4610825 162.7312317  26.3466072
  89.0187149 162.6585388  27.2434788  90.6955261 161.7352448  28.2424049
  91.3657303 161.0116272  28.0249557  91.3042297 162.4451752  28.6239548
  90.0349731 161.5208588  28.9757595  87.8366699 160.9969177  22.0084019
  88.3225098 160.1502686  21.2543697  88.1148605 162.3012238  22.0116253
  87.6248322 162.9747314  22.5829182  88.8215256 163.0314178  20.9748955
  89.2702103 162.2868500  20.3173103  87.7753067 163.8059235  20.2134876
  87.1518478 164.4322662  20.8515186  88.3379288 164.4528046  19.5403576
  86.8824997 162.9161377  19.3628330  87.2698593 162.6375885  18.0349369
  88.1821289 162.9966888  17.5819378  86.3916245 161.9251556  17.2141476
  86.6336365 161.8398743  16.1650734  85.0926437 161.4682922  17.6185169
  84.4041290 160.9463959  16.9704628  84.7238998 161.6988220  18.9640331
  83.7907639 161.3034668  19.3373508  85.6023407 162.4406586  19.8062000
  85.2155685 162.6678925  20.7886314  89.9285126 163.9121094  21.4872971
  89.6618118 164.9811554  22.0091991  91.1544037 163.4461517  21.3579559
  91.3425980 162.5975189  20.8436470  92.3646088 164.2142639  21.7050209
  91.9566269 164.9895020  22.3536034  93.3989334 163.4417267  22.5446548
  94.3028259 164.0361023  22.6780605  92.8571014 162.9915161  23.8849545
  91.9255600 162.4534760  23.7093048  93.6185837 162.3759613  24.3638649
  92.5556641 163.9004211  24.4056568  93.7331543 162.2219849  21.8911705
  94.3868484 162.4086151  21.2133389  92.9380798 164.7759399  20.3898125
  93.1868591 164.0538025  19.4284763  93.2619247 166.0360107  20.4600296
  93.2773132 166.5512695  21.3285751  93.8967285 166.7453461  19.3404236
  93.2122879 166.6580963  18.4966030  93.9841690 168.2369232  19.7265110
  94.6105728 168.3155365  20.6150723  94.3747559 168.6891479  18.8148956
  93.0381470 168.7686462  19.8285904  95.3053970 166.2459869  19.0092220
  96.0951385 165.8850403  19.8807049  95.7007828 166.3034668  17.6762409
  94.9870682 166.5648651  17.0111256  97.0248337 165.8108215  17.2377338
  97.3140488 165.0089417  17.9170189  96.8836136 165.1450348  15.8035307
  97.8461456 164.7935791  15.4318981  95.9271088 163.9838409  15.7914495
  94.8805771 164.2885590  15.7870722  95.9224396 163.4273071  14.8542471
  96.1224823 163.3426208  16.6509666  96.4806747 166.1897583  14.8904572
  95.6038208 166.4249725  15.2025328  98.2335968 166.7887726  17.3124180
  99.3628311 166.3930969  17.6137772  98.0005875 168.0837860  16.9959927
  97.0773163 168.3739929  16.7071304  99.1021194 169.1495819  16.9766541
 100.0578613 168.6591187  17.1612892  99.0512085 169.8574524  15.6369953
  98.0077286 170.0254822  15.3704796  99.6047745 170.7962494  15.6189346
  99.6520081 169.0317535  14.5333691 100.7192307 169.0248413  14.7549276
  99.3446732 167.9889679  14.6123600  99.3277969 169.5490875  13.0876207
  99.5745316 170.6100769  13.0484476 100.0269852 168.9146729  12.5428829
  97.8530884 169.1985779  12.7379551  97.7585373 168.1137238  12.6905365
  97.2074966 169.5591736  13.5387583  97.3847275 169.7694855  11.4763002
  97.9151382 169.3000336  10.7563133  96.4312515 169.5066681  11.2715740
  97.4782333 170.7751465  11.4779377  98.9467087 170.0887451  18.1644669
  97.8022308 170.2915192  18.6202507 100.0712891 170.5987396  18.7255192
 100.9506683 170.4059906  18.2676468 100.1708755 171.3128510  20.0335999
  99.8052368 170.6703644  20.8346138 101.6875839 171.4951019  20.3017559
 101.8785629 171.5360413  21.3741131 102.2894363 170.6429749  19.9859123
 102.3844299 172.6517792  19.5995750 102.5235748 172.4308319  18.5413113
 101.8825150 173.5800476  19.8725204 103.8239441 172.8149109  20.0862999
 103.8730774 173.1476593  21.1231041 104.3947601 171.8954773  19.9562283
 104.4937210 173.8759460  19.2824306 104.0271759 174.8449554  19.4597912
 105.5205536 174.0554657  19.6009941 104.6179504 173.6084442  17.8085842
 103.6716537 173.6505127  17.4580879 105.1743240 174.2273254  17.2362881
 104.9371033 172.6640167  17.6463871  99.3672943 172.6178436  20.2123737
  99.4082565 173.1356201  21.3170319  98.8047791 173.1896820  19.1521378
  98.7250595 172.5962372  18.3387623  98.2651825 174.5569458  19.0643902
  98.5576630 175.0070038  20.0130787  98.9767227 175.3696442  17.9322090
  98.4917679 176.3457642  17.9216061  99.9926453 175.5019836  18.3043442
  99.0564270 174.8010559  16.5269775  98.5644836 173.6929474  16.2000389
  99.5925903 175.5101776  15.6193295  96.7540131 174.5901489  18.9545116
  96.1927261 175.7167816  18.9685631  96.0208740 173.4965668  18.7125168
  96.4158478 172.5876770  18.5175762  94.5784454 173.4693298  18.6954346
  94.2677689 174.2574921  18.0095825  94.0166931 172.1144562  18.1386738
  94.0586319 171.2975464  18.8591022  92.9659882 172.2592773  17.8873978
  94.8214874 171.6989441  16.8747311  94.8274002 172.4599304  16.0943565
  95.8570862 171.5341034  17.1721497  94.2945786 170.1431580  16.0878963
  92.8598175 170.6588745  15.0088930  93.2083969 171.2876587  14.1896162
  92.5245972 169.7790222  14.4596987  92.0258331 171.1107788  15.5458784
  93.9322815 173.7245026  20.0598831  94.5310745 173.4093018  21.0880413
  92.7270050 174.2947388  19.9794617  92.3902588 174.6267395  19.0870056
  91.7914734 174.4220734  21.1446705  92.1053467 173.6996918  21.8981590
  91.8908691 175.9255524  21.5567169  92.9471970 176.1888580  21.6108665
  91.4894409 176.5564880  20.7636986  91.1921234 176.1648407  22.7725830
  91.4658966 175.5587921  23.4649353  90.3944244 174.1630096  20.6014652
  90.0971603 174.7450409  19.5716019  89.4975510 173.4053192  21.2479763
  88.0988541 173.1624756  20.9255657  87.9489975 172.8866119  19.8817539
  87.6112518 174.1197357  21.1099472  87.5636673 172.0398712  21.8617554
  87.8560486 171.0718079  21.4549637  86.4851837 172.1320343  21.9901638
  88.4449005 172.2026062  23.1099014  88.6463699 171.2552338  23.6098938
  88.0179520 172.8793335  23.8500748  89.7454834 172.8566895  22.5761509
  90.2456055 173.5351868  23.2672482  90.7899551 171.7264557  22.4793777
  90.8686066 171.1124268  21.3896599  91.6716614 171.5311127  23.4285545
  91.5733185 172.2346802  24.1464844  92.6854858 170.3656921  23.3893452
  93.2282333 170.5992126  22.4733829  93.5698776 170.5418091  24.6396408
  94.1673126 171.4499817  24.5595932  92.8971481 170.7248535  25.4775143
  94.5325470 169.3529663  24.8973541  94.9864120 169.6666107  25.8374252
  94.0301590 168.3860321  24.9248161  95.6898956 169.2800598  23.8350239
  95.9007111 170.1388702  22.9678268  96.4789963 168.2487183  23.8547401
  97.1842117 168.2211456  23.1322403  96.3806763 167.5343781  24.5619678
  92.0130539 168.9647980  23.3031216  92.5751877 168.0648346  22.6620140
  90.8940811 168.7793274  24.0438309  90.4628983 169.6241608  24.3908558
  90.0950775 167.5281219  24.1061859  90.3619766 166.8852081  23.2674217
  90.4893494 166.8059540  25.4362850  89.8376236 165.9398651  25.5514259
  91.4894638 166.3988342  25.2874870  90.2482300 167.7975159  26.5711174
  90.4337158 168.8547668  26.3815403  89.2230835 167.6618042  26.9157257
  91.1388092 167.3352966  27.7945633  90.6007538 167.6834259  28.6762657
  91.1590500 166.2460175  27.7604122  92.5389938 167.8229523  27.6895351
  93.0188217 167.4187622  26.7981892  92.4510880 168.9067535  27.6137447
  93.5039291 167.4673615  28.7296276  93.5987701 166.4671783  28.8333187
  94.4464722 167.6579132  28.4207516  93.3248596 167.9526978  29.5970783
  88.5636978 167.7900391  24.0098286  88.0626068 168.8417664  24.3963585
  87.7943573 166.7952271  23.5519066  88.2906952 165.9423065  23.3367653
  86.3290253 166.6757812  23.6647892  86.0151520 166.9053040  24.6830730
  85.6303177 167.5703735  22.6159840  84.6027298 167.7021332  22.9548321
  86.0693207 168.5504913  22.8024139  85.6893005 167.0578156  21.1975803
  86.7406158 167.3650818  20.3509159  87.4407425 168.0521851  20.8026943
  86.8043213 166.9131622  18.9894028  87.5256653 167.2042999  18.2402096
  85.7519150 166.0645752  18.5174999  85.8029633 165.7180634  17.4958706
  84.6593857 165.8075562  19.3475723  83.8375854 165.2112579  18.9795074
  84.6500092 166.2832489  20.6700459  83.7540817 166.0453491  21.2242260
  85.8490143 165.1669617  23.6805325  86.5945129 164.2273407  23.5399513
  84.5667648 164.9418793  23.6526737  83.9736176 165.7302399  23.8689270
  83.9249496 163.7114105  23.6605587  84.6557312 163.0204010  23.2403564
  83.3974075 163.3307343  25.0517559  82.7096786 164.1216431  25.3510761
  82.8491058 162.3918457  24.9744568  84.4487000 163.1534271  26.1474552
  85.0038452 164.0819550  26.9600887  84.6821747 165.1096954  27.0418434
  85.8099289 163.5640717  27.9066563  86.3176041 164.1800232  28.5255051
  85.8722687 162.1867981  27.8246403  86.2763138 161.1862488  28.6765652
  86.6768875 161.4621429  29.6408386  86.0484390 159.8179169  28.3031063
  86.3628082 159.0675049  29.0133629  85.4295578 159.5302887  27.1000023
  85.2207565 158.5183105  26.7858562  84.9111862 160.5504456  26.2811852
  84.3404846 160.2754669  25.4064846  85.1586380 161.9611969  26.6376610
  82.7955170 163.8742065  22.6194897  82.0096817 164.8269196  22.7336483
  82.7563477 162.9735718  21.6558876  83.3285828 162.1533356  21.7968330
  81.7296677 162.8149872  20.6432533  81.0475311 163.6644287  20.6782627
  82.0786591 162.7095947  19.6160240  80.8804245 161.5489044  20.9972057
  81.1806564 160.4026489  20.7796345  79.8713150 161.7544708  21.8460579
  79.5691605 162.7140045  21.9360466  79.0365295 160.6769867  22.4713802
  79.6715088 159.8045044  22.6253185  78.5619812 161.1734467  23.8132076
  77.7672653 161.9100189  23.6949921  78.1206512 160.3079071  24.3073292
  79.6572571 161.7673492  24.7521763  80.0984726 162.6261597  24.2463474
  79.0935745 162.1988220  26.0874710  78.7721634 161.3538818  26.6964874
  79.8940582 162.7036133  26.6283035  78.2592850 162.8726807  25.8926258
  80.7253876 160.7156525  25.0634193  81.2293243 160.3116913  24.1853752
  81.4168625 160.9944763  25.8585434  80.2008972 159.8872833  25.5396824
  77.8205566 160.3117676  21.5740223  77.2082596 161.2778168  21.1156712
  77.3899078 159.0607910  21.4869938  77.9330215 158.3550720  21.9635315
  76.3005753 158.6434631  20.5555897  76.3763428 159.2824707  19.6757965
  76.4060059 157.2031555  20.0832157  75.4078064 156.9594421  19.7194614
  77.3498306 156.9765778  18.8949738  78.3151016 157.4011078  19.1708755
  77.5578690 155.9386902  18.6349545  76.9581299 157.4891357  18.0163612
  76.8618851 156.3431091  21.1411495  76.1674728 156.3426514  21.8040199
  74.8804703 158.7999115  21.1635208  74.5579605 158.2282562  22.2212505
  73.9766769 159.5987244  20.5056152  74.3000946 160.0052185  19.6394367
  72.7036743 160.0666199  21.0688477  72.8795547 160.2270660  22.1325321
  72.2928085 161.4257355  20.5245056  71.4433365 161.7710114  21.1138191
  73.1457214 162.0630646  20.7578411  71.8116837 161.3952332  19.0460072
  72.4630585 161.9891052  18.4048290  71.7560196 160.3857727  18.6385670
  70.4530869 162.0231323  18.8169765  70.4304962 163.0004272  19.2991314
  70.3077164 162.1022339  17.7396126  69.3829117 161.1711121  19.4882755
  69.0855026 161.3878632  20.4288445  68.5953293 160.2341766  18.8331718
  68.6371384 159.8151093  17.5928345  69.0893860 160.3361969  16.8552456
  68.0561066 159.0549927  17.2692165  67.6290588 159.7476349  19.4947262
  67.2973251 160.1576996  20.3560658  67.0085602 159.1835327  18.9318161
  71.5456848 159.0012817  21.1991653  70.5663376 159.2009125  21.8898830
  71.6253891 157.9409790  20.3888607  72.3992157 157.9027252  19.7409210
  70.7241516 156.7898865  20.5165901  69.7002029 157.1403961  20.3871346
  70.9911423 155.7930603  19.4133759  70.4453506 154.8495483  19.4157448
  70.7908173 156.2504120  18.4444580  72.3962021 155.4145050  19.2965832
  72.4071274 154.9321899  18.4666061  70.8978882 156.0656586  21.9044704
  69.9587326 155.6829529  22.5779858  72.1630173 156.0949249  22.3816051
  72.9049606 156.3862610  21.7613201  72.5732574 155.3704834  23.5893707
  71.9840469 154.4560699  23.6583023  74.0183868 155.0423431  23.4974728
  74.5845032 155.9705505  23.4196320  74.3380966 154.4777679  24.3733444
  74.3357162 154.5255737  22.5917397  72.2913895 156.1922150  24.8425713
  72.3610001 155.6673889  25.9228497  72.1290817 157.5016022  24.6735916
  72.0384445 157.8851471  23.7436543  71.8289719 158.4496460  25.7288227
  72.3079300 158.0262909  26.6116982  72.5936279 159.8556976  25.4123554
  72.2517471 160.2353210  24.4494972  72.2281799 160.5109863  26.2030201
  74.1591187 159.9224243  25.4290028  74.6350174 159.0547791  24.9720440
  74.5170364 161.1866913  24.5658512  74.1495590 162.1608429  24.8884525
  75.5869751 161.3733368  24.6580658  74.3509903 161.0486298  23.4974556
  74.7298050 160.0518341  26.8157158  74.5060730 159.1647797  27.4083328
  75.8160019 160.1280975  26.7659454  74.2833328 160.8851013  27.3583126
  70.3700409 158.6128845  26.1631470  69.4223862 158.1640015  25.5416794
  70.1905060 159.1569061  27.3799400  70.9688721 159.4729767  27.9406052
  68.8553009 159.2438202  28.0103493  68.0840302 159.3884888  27.2538280
  68.6249695 157.8995056  28.7485752  68.5522919 157.0816956  28.0316257
  69.5061188 157.7512817  29.3728428  67.4300079 157.8085632  29.6490822
  67.6353607 158.4295197  30.5210648  66.0925064 158.2548218  29.0076294
  65.8419571 157.7643738  28.0669994  65.2808990 158.1510162  29.7277832
  66.1854630 159.3170471  28.7815533  67.2280960 156.3727570  30.2030430
  68.1326752 156.1069794  30.7500381  66.3964081 156.3772430  30.9075813
  66.9113770 155.6509247  29.4502106  68.6999512 160.4930115  28.9305096
  69.3031235 160.5314178  30.0084248  67.8402023 161.5059204  28.6000996
  67.3239517 161.7711639  27.2601433  66.2591705 161.5408478  27.2243061
  67.8426819 161.2866669  26.4329262  67.5413895 163.2443237  27.0615749
  66.9626541 163.6326904  26.2235165  68.6061401 163.3785706  26.8708439
  67.1672211 163.8158264  28.4534874  66.0773544 163.8046417  28.4662476
  67.6400604 164.7365570  28.7952404  67.6738281 162.7339020  29.3924446
  68.6175842 163.1211853  29.7764301  66.7511292 162.4660797  30.6028175
  65.8175812 163.1439972  30.8790932  67.2182388 161.6143341  31.5360699
  68.0969238 161.1537170  31.3467331  66.6776505 161.3627167  32.8920670
  65.5918961 161.2683868  32.9104729  67.3536987 160.0180054  33.3634949
  66.9894714 159.2351685  32.6982155  68.4320755 160.1705017  33.3194199
  67.0286789 159.7455139  34.8979187  67.4428940 160.5944519  35.4418106
  65.9596100 159.8404083  35.0881653  67.6301117 158.4739532  35.3939247
  68.6189346 158.3544159  34.9511490  67.7711105 158.6211395  36.4646988
  66.7351151 157.3318481  35.1546402  66.2852478 157.3405151  34.2504005
  66.5209503 156.3816376  36.0337486  66.8542938 156.3953552  37.2716331
  67.1533203 157.2874298  37.6389008  66.5507812 155.6958466  37.9339638
  65.9060440 155.3392639  35.6551132  65.5352707 155.2955475  34.7166481
  65.5980759 154.6914215  36.3661308  66.9758453 162.4815826  33.8520927
  66.0246429 162.8996124  34.5184097  68.1518555 162.9542999  33.8957291
  88.4538193 148.6835632  15.0747547  87.0404434 148.4752960  15.3771620
  87.7660294 149.0297546  13.8137693  85.7909470 148.6207733  15.0745678
  86.7089462 149.3368988  13.1762886  85.3186111 149.2097626  13.7809229
  84.3605499 148.3996429  12.9800272  84.3596725 150.4212646  13.7063227
  83.7188034 149.4734344  13.1241150  84.2673874 151.7087860  14.0528049
  83.0956879 152.6271820  13.8175821  85.3835373 152.3321228  14.7696609
  83.5675659 153.7510681  14.2608089  85.0067749 153.5890045  14.8403997
  84.2891006 154.8418732  14.8745251  84.8552780 156.1051788  14.5906334
  85.1608582 156.6674957  13.2445183  84.7990723 157.1013031  15.3940477
  85.1492157 155.9683380  12.2472057  85.3244858 158.1149597  13.1387558
  84.8951874 158.2932587  15.3172541  85.2177429 159.1826935  14.1464882
  85.5037155 160.3572998  14.0529728  85.6314468 158.3898773  12.2131348
  88.1856766 147.4701996  14.4997578  87.8902512 142.4674072  13.1803999
  88.5957260 144.0403595  13.4626446  87.9330139 145.0959167  13.9304619
  89.8933716 144.3346100  13.2704697  86.5529099 145.0413361  14.1223993
  88.7297287 146.2451172  14.1419115  90.7269897 145.1909943  13.2649899
  90.1862640 146.1641388  13.7515640
