Cpptraj Generated Restart                                                       
 6222  4.0000001E-01
  89.9980927 181.0579224  24.3900299  90.9591904 181.1198120  24.0858097
  90.0465012 180.1663208  24.8620338  89.7698669 181.7542725  25.0851021
  89.0064087 180.9061279  23.2062817  87.9975891 180.8050537  23.6064949
  89.0006943 182.2046661  22.3662930  89.9879303 182.4052277  21.9500694
  88.3025436 182.0392914  21.5457191  88.4347992 183.4475250  23.1665077
  87.3459091 183.4673004  23.1214447  88.5945053 183.3299561  24.2383156
  89.0521469 185.0399628  22.6566582  88.0986404 185.5224152  21.1207924
  87.1548004 185.8996887  21.5144062  88.5763245 186.3194885  20.5510483
  87.8106003 184.7201996  20.4413948  89.3319473 179.6062927  22.3681068
  90.4736099 179.0754700  22.3079796  88.2521667 179.0633240  21.7687111
  87.4047928 179.6128540  21.7611427  88.3244171 177.9475708  20.7628956
  88.9443359 177.1468353  21.1661797  86.9355698 177.3092499  20.5896130
  86.1306152 178.0440674  20.5756836  86.8025436 176.5093231  19.2972107
  87.5463257 175.7136536  19.2547646  85.8685608 175.9481049  19.2686386
  86.8802109 177.1455078  18.4155464  86.6897202 176.3813782  21.7988663
  85.8331604 175.7426300  21.5834484  87.5566406 175.7244110  21.8693161
  86.2699890 177.0580292  23.1162453  85.3406143 177.6066284  22.9632797
  86.0431900 176.2993622  23.8652992  87.0539932 177.6845703  23.5415573
  89.0518112 178.4936523  19.4734211  88.8840637 179.6575928  19.1175995
  89.6741562 177.6063843  18.7054882  89.7777023 176.6509552  19.0161858
  90.3977203 177.9480743  17.4230614  89.9220886 178.8030090  16.9424782
  91.9044800 178.3104706  17.6487198  92.3921280 178.9316254  16.8974056
  91.8757095 179.0691986  18.4307728  92.8883514 177.2255096  18.0733585
  92.6390076 176.0666656  17.8407745  93.9532852 177.5883026  18.7442303
  94.6277847 176.8885803  19.0190601  94.2175293 178.5618744  18.7935009
  90.1949997 176.8410339  16.4069653  90.4894638 177.1133728  15.2414865
  89.5808868 175.6829376  16.6976547  89.5327911 175.4479218  17.6787567
  89.0615387 174.7635956  15.6584158  89.9082031 174.3078308  15.1450510
  88.1627579 173.6904907  16.2349262  88.7304077 173.2300568  17.0435562
  87.3007202 174.1982117  16.6675949  87.6802826 172.6866150  15.2780027
  88.5607605 171.7488251  14.6631098  89.6325531 171.8498688  14.7494087
  88.0095367 170.6254120  13.9300289  88.6048965 169.9179688  13.3719387
  86.6264954 170.3811493  13.8762083  86.1545334 169.5323486  13.4037828
  85.7710190 171.3483276  14.5199671  84.6968842 171.2359619  14.5215559
  86.2764587 172.5229187  15.1620998  85.6348267 173.2329407  15.6626873
  88.1525726 175.5088806  14.6344280  87.2789307 176.2622223  15.0112925
  88.3661194 175.3668365  13.3438473  88.9867096 174.6148987  13.0800915
  87.4934006 175.9694061  12.3089457  87.2281342 176.9892426  12.5876665
  88.2412720 176.0419922  10.9938927  89.1667252 176.5981140  11.1434374
  88.6357346 175.0752411  10.6810141  87.4331665 176.6136932   9.8291960
  86.3909378 177.2043457  10.1064825  87.8995285 176.4201355   8.6474552
  86.1833115 175.2430573  12.2245531  86.0646210 174.2380066  11.5255423
  85.1768875 175.7030792  12.9931707  85.3424683 176.5222778  13.5602541
  83.8735657 175.0512390  13.1419945  84.0550003 174.0930176  13.6288261
  82.9881287 175.7898407  14.1789722  82.0753403 175.2205048  14.3543816
  83.6110611 175.9466858  15.5520334  84.3862000 176.7086182  15.6339722
  82.8317261 176.1342468  16.2906590  84.0508270 174.9700775  15.7543545
  82.6800003 177.1694489  13.8019056  81.9939194 177.5145721  14.3779182
  83.0103073 174.8022156  11.8645411  81.9312897 174.2327576  11.9064589
  83.4475861 175.2298279  10.6773272  84.3632431 175.6509399  10.6114464
  82.9252014 174.7477417   9.4311066  81.8459549 174.6111755   9.4995813
  83.1355133 175.8909607   8.3422842  82.5076599 175.5505219   7.5188708
  82.8125076 176.8858337   8.6488695  84.4514847 175.9598083   7.9641995
  84.8551331 176.6707916   8.4673700  83.4480820 173.3951874   8.9070101
  82.8763351 172.7814484   8.0034142  84.5765839 172.8847656   9.4579754
  85.0755386 173.5339813  10.0493135  85.2109451 171.5857697   9.0672684
  85.3781815 171.5378876   7.9912362  86.5630722 171.4697571   9.7132664
  86.4495316 171.7033844  10.7718639  87.0797348 170.5159607   9.6063490
  87.5904846 172.4629211   9.1687546  87.2286301 173.4839325   9.2900772
  88.8147888 172.3732452  10.0825729  89.2544022 171.4331665   9.7492847
  89.5498734 173.1711273   9.9769888  88.5582657 172.3241272  11.1408186
  88.0966110 172.2968750   7.7305512  87.2433701 172.1486511   7.0686517
  88.5117264 173.2236938   7.3346081  88.7671356 171.4375610   7.7215810
  84.3808365 170.2935028   9.2416372  84.7143860 169.2933502   8.5597038
  83.4626083 170.2026978  10.1860905  83.5299683 170.8592224  11.4974823
  83.0073013 171.8125000  11.4187574  84.5884018 170.9987946  11.7173367
  82.8215561 169.9841766  12.4817352  82.2440720 170.6529388  13.1199951
  83.5083618 169.3473816  13.0393229  81.9037704 169.0760651  11.6299314
  80.9898376 169.6607513  11.5251408  81.6742020 168.1060333  12.0708570
  82.5278625 169.0403137  10.2179232  83.1787491 168.1711731  10.1228132
  81.5265656 169.0419617   9.0399532  81.2044296 167.9625549   8.4687300
  80.9897156 170.2098236   8.6851664  81.3301926 171.1079254   8.9975386
  79.7867432 170.3022003   7.8168554  79.1407471 169.4520721   8.0361605
  79.0923996 171.6499023   7.9403224  78.1612854 171.6394501   7.3737392
  78.7633667 172.0574646   9.3593664  79.7078171 172.2168274   9.8796635
  78.0450287 172.8743439   9.4285965  78.2628784 171.2410583   9.8800259
  79.8920441 172.7227631   7.5293536  79.2726974 173.2752838   7.0469308
  80.1082001 170.1289368   6.2935872  79.1854782 169.8981476   5.5000916
  81.3560028 170.1770172   5.9146237  82.0311356 170.5271606   6.5792284
  81.9031067 169.7498016   4.6392598  81.1565247 170.1382294   3.9465570
  83.2002869 170.4389954   4.4216695  83.6937637 170.1013489   3.5103080
  83.0372467 171.5139465   4.3442259  83.9924774 170.3215332   5.5491195
  84.4395828 171.1413879   5.7716403  81.9942474 168.2224426   4.5611043
  82.0004196 167.7338715   3.3767049  81.9688110 167.4529572   5.6595082
  81.8975296 167.9417114   6.5404935  82.0738297 165.9803772   5.6690965
  82.3262177 165.7625885   6.7068672  80.6718445 165.3829803   5.4046135
  80.3585510 165.7733002   4.4363151  80.7978210 164.3002930   5.4009590
  79.6765518 165.6784058   6.4631481  79.7372208 165.1947632   7.7552199
  78.7348328 165.8060760   8.3853407  78.6049347 165.7624817   9.4566135
  78.0498352 166.6488190   7.5718136  77.2221603 167.1234741   7.9031081
  78.6948318 166.6297455   6.3379402  78.3525772 167.1136017   5.4350815
  83.1916809 165.3750000   4.8486366  83.0348816 164.3822479   4.1333351
  84.4633865 165.9093933   4.9887929  84.5838013 166.6809998   5.6292729
  85.6878204 165.5296021   4.2651930  85.5547867 165.7389832   3.2037969
  86.8327026 166.4071503   4.8840575  86.8239822 166.2558594   5.9634714
  87.7789307 166.0590057   4.4698772  86.6055374 167.9273529   4.4860530
  86.9937592 167.8953094   3.4680369  85.5340500 168.1095581   4.4035096
  87.3069611 169.2167206   5.5971007  89.0081177 169.1258392   5.0581508
  89.1231079 168.8840179   4.0015512  89.5863647 169.9882507   5.3897457
  89.3971558 168.2618866   5.5969806  86.0036850 164.0366974   4.3079252
  86.5895004 163.4812775   3.3983643  85.6153717 163.3738556   5.3869910
  85.0765610 163.8814392   6.0741086  85.9965286 161.9927673   5.6667871
  87.0848923 162.0387878   5.7047257  85.6588211 161.6932068   7.0949888
  85.8946457 160.6513672   7.3119578  86.2049255 162.3357544   7.7856264
  84.1617584 161.8033447   7.3279328  83.6160049 163.0639648   7.6370230
  84.1898193 163.9721375   7.7482715  82.2459869 163.1837769   7.8294458
  81.9349594 164.1505280   8.1969500  81.3659439 162.1115570   7.6160278
  80.0856857 162.2393494   7.8949862  79.9146423 163.1795349   7.9865446
  81.9037094 160.8298798   7.3769717  81.2139206 160.0018005   7.3070011
  83.3470917 160.6604309   7.1949873  83.7118988 159.6544647   7.0489707
  85.3750763 160.9681244   4.7772856  85.9679337 159.8947144   4.6238995
  84.1664581 161.2489777   4.1302023  83.8039551 162.1292114   4.4676681
  83.4329071 160.5180206   3.1459572  83.4197083 159.4514771   3.3704576
  81.9624939 160.9791718   3.1436975  81.5470657 160.7192535   4.1173348
  82.0675659 162.0597687   3.0468736  81.0754852 160.4341583   2.0199966
  81.5326157 160.5843048   1.0419408  80.7435150 158.9586334   2.2793472
  80.1627426 158.8864899   3.1989160  80.0771942 158.6063080   1.4919585
  81.6864395 158.4118652   2.2728136  79.7397690 161.2325439   2.0289106
  79.9488373 162.3021545   2.0467098  79.1921844 161.0710297   1.1003798
  79.1568375 160.8932343   2.8851628  84.1832809 160.7430878   1.8281018
  84.2958984 159.7949066   1.0463036  84.6902618 161.9518280   1.6289639
  84.6031036 162.6615295   2.3422754  85.5740356 162.2987823   0.5160162
  86.5877304 162.3568268   0.9124254  85.5487823 161.5600281  -0.2850547
  85.3534470 163.6189423  -0.1878462  84.2942047 164.2316437  -0.0598082
  86.4313889 164.1611938  -0.7548530  87.2319489 163.5541077  -0.8580793
  86.3548126 165.3511810  -1.6047804  85.5009079 165.9580383  -1.3036815
  87.7125168 166.1637421  -1.3402078  87.5610046 167.1282654  -1.8248032
  87.8337555 166.2822266  -0.2634707  88.8861313 165.4696960  -1.7987154
  89.6404800 166.0500488  -1.6732056  86.1890335 164.9363556  -3.0916154
  86.1398468 163.7552490  -3.4672136  86.0950623 165.9286041  -3.9514623
  86.4711151 166.8262939  -3.6815996  85.8980408 165.7247467  -5.3687415
  85.6759033 166.6903534  -5.8230300  87.2545471 165.2611389  -6.0395312
  88.0868530 165.8029480  -5.5903001  87.4663544 164.2292480  -5.7594714
  87.2533951 165.4614563  -7.5645609  86.6709747 166.4364624  -8.0779791
  88.0735397 164.7386780  -8.2371082  84.6417618 164.8384094  -5.8177977
  84.7943802 163.8559113  -6.5185423  83.5002365 165.1923218  -5.3218379
  83.4311981 166.0254364  -4.7550569  82.1505737 164.6685944  -5.6925292
  82.2699661 163.6232605  -5.9773269  81.2618561 164.6316376  -4.5201683
  80.9719925 165.6634979  -4.3217826  80.3398361 164.0915222  -4.7352400
  81.9275970 163.9708405  -3.2412362  82.4469299 163.0488739  -3.5027666
  82.7173996 164.6076202  -2.8427079  80.8633347 163.7699127  -1.7843878
  79.8068161 162.3381500  -2.2819445  80.4187164 161.4361115  -2.2776191
  79.0074692 162.2144165  -1.5513041  79.3460846 162.5345764  -3.2500558
  81.5872498 165.3725128  -6.9387684  82.0115967 166.5065002  -7.3292785
  80.5056076 164.8147125  -7.5840993  80.2188721 163.8720398  -7.3621407
  79.5864792 165.5995636  -8.4016209  80.1236191 166.4380798  -8.8448610
  78.9907074 164.6840210  -9.5263605  79.8198090 164.2065887 -10.0486116
  78.5698471 163.7779236  -9.0905094  78.0022125 165.3250580 -10.5098877
  77.0751419 165.6183929 -10.0173588  78.3859329 166.2491455 -10.9422331
  77.6122284 164.3637238 -11.6346550  77.8723373 163.1183014 -11.6025944
  76.9667435 164.8028717 -12.6252995  78.5813751 166.3353729  -7.4909959
  77.9703369 165.7105865  -6.5803432  78.2999573 167.6454163  -7.7605686
  78.7806244 168.0750732  -8.5380392  77.1712799 168.3726044  -7.1365862
  76.9482803 167.8087769  -6.2307897  77.5533371 169.7402649  -6.6018987
  78.0446625 170.2848969  -7.4081731  76.7016830 170.2444000  -6.1451416
  78.6935806 169.6599274  -5.5287805  78.4334793 168.9162292  -4.7755451
  79.6605453 169.3686981  -5.9389820  79.0014877 170.9925537  -4.8122044
  78.1217728 171.8065948  -4.4080272  80.2006531 171.1952820  -4.5474076
  75.9388275 168.5193176  -8.0705595  76.1043015 168.5907593  -9.2775574
  74.7455673 168.4828186  -7.4379287  74.8102722 168.4882965  -6.4300184
  73.4770126 168.8705597  -8.0958338  73.5878677 169.1062012  -9.1542664
  72.3834763 167.8132172  -7.8420272  72.3882828 167.7601471  -6.7533307
  71.4065475 168.2119293  -8.1154289  72.6469727 166.4281921  -8.5128393
  72.5138474 166.2892303  -9.9344444  71.9737930 167.0030060 -10.5388060
  72.9992447 165.1277161 -10.5348301  72.7536469 165.0445251 -11.5832376
  73.4392319 164.0756989  -9.7301702  73.7510147 163.1173706 -10.1184950
  73.4186020 164.1928101  -8.2936850  73.7654114 163.4083862  -7.6373310
  73.0698395 165.3831482  -7.7369289  73.0932312 165.5333557  -6.6676826
  72.8268585 170.1800385  -7.5534945  72.6533508 170.4042969  -6.3392634
  72.6374359 171.0766907  -8.4991684  72.8553467 170.8080292  -9.4480829
  72.2419586 172.4532318  -8.2508888  72.6370926 172.7796326  -7.2888937
  72.8339005 173.4024200  -9.2886524  72.5074081 174.3827972  -8.9417009
  73.9205399 173.4338837  -9.2090816  72.3738556 173.2202911 -10.7176113
  72.8500748 172.1723480 -11.5151644  72.3080826 172.3676605 -12.7171688
  72.5081253 171.6250000 -13.4753513  71.4080658 173.3852234 -12.7086124
  70.9327621 173.6217194 -13.5678310  71.4549332 173.9629974 -11.4330158
  70.8505859 174.8109131 -11.1462927  70.7292023 172.6922302  -8.1547737
  70.3202362 173.4882507  -7.3234034  69.9171829 171.8939667  -8.8597507
  70.3578186 171.0845795  -9.2730875  68.4755783 171.9847260  -8.8385935
  68.2206497 173.0323639  -8.9985285  68.0323181 171.4331207  -9.6676693
  67.9036331 171.4704132  -7.5625219  68.6465378 171.0382538  -6.6478896
  66.5654678 171.6118774  -7.4640446  66.0697098 171.8891754  -8.2991695
  65.7828903 171.3410187  -6.2204556  66.3095627 170.6366425  -5.5765748
  65.6454239 172.7086639  -5.4988456  65.2461319 173.4278717  -6.2139759
  65.0148544 172.4761810  -4.6406918  66.8648682 173.3883667  -4.9769278
  67.6178055 173.4550018  -5.7622638  66.6827164 174.3874664  -4.5810456
  67.4967728 172.6920166  -3.7859204  66.8870392 172.6829529  -2.8824561
  67.5310898 171.6334229  -4.0434399  68.8845978 173.0330658  -3.4628227
  69.5811768 172.6850281  -4.1060534  69.3267746 174.0326233  -2.7480989
  68.6165695 174.9234161  -2.1830058  67.6157990 174.8585358  -2.3028133
  68.9645996 175.6468964  -1.5701864  70.6289291 174.3044281  -2.5769670
  71.2699051 173.7894745  -3.1635363  70.9362411 175.1641083  -2.1449618
  64.3947678 170.7179871  -6.3897152  63.6015892 171.0375061  -7.2672100
  64.0566330 169.8204803  -5.4583797  64.6884155 169.6801147  -4.6829748
  62.8708916 168.9421387  -5.5939398  62.3785553 169.0214081  -6.5631762
  63.3677597 167.4516296  -5.5658274  63.8187447 167.1948395  -4.6073050
  62.3040352 166.3730011  -5.8944120  61.9239998 166.5569458  -6.8993201
  62.7067108 165.3601532  -5.9040861  61.5062828 166.4946899  -5.1616831
  64.4043579 167.2895508  -6.5064845  64.7109070 166.3851624  -6.6049581
  61.8758698 169.2510223  -4.4393754  62.1709290 169.1722260  -3.2891281
  60.6779900 169.6960297  -4.7696829  60.5010414 169.7389374  -5.7631369
  59.4982491 169.9028625  -3.9161687  59.5399971 169.2824707  -3.0209141
  59.3794289 171.3401947  -3.4696062  59.2256432 171.8403320  -4.4258060
  58.4514084 171.4657745  -2.9118264  60.4751740 171.8230591  -2.5559735
  61.4677887 171.5777130  -2.9336271  60.3509293 173.2989044  -2.3045495
  59.4259567 173.5860291  -1.8044686  61.1104507 173.6588593  -1.6105213
  60.4010849 173.8260803  -3.2572663  60.4232330 171.2279968  -1.1173152
  60.4521866 170.1403046  -1.1819406  61.3266716 171.6879578  -0.7168909
  59.5636101 171.6413116  -0.5897486  58.1981087 169.4253540  -4.6102333
  58.1175003 169.4856110  -5.8504930  57.2101746 169.0321808  -3.7970078
  57.5467377 168.9233398  -2.8509746  55.8742867 168.4546051  -4.1516047
  55.8344269 168.4509735  -5.2408733  55.7290840 167.0394897  -3.5466111
  55.8152924 167.0939636  -2.4613910  54.7818222 166.6358185  -3.9041586
  56.7733536 166.0574341  -4.0214458  57.6891823 165.3074646  -3.1993234
  58.4322014 164.6220093  -4.0859370  59.2909317 163.9888306  -3.9183736
  57.9660606 164.7558136  -5.3494864  58.3411064 164.2663727  -6.1494131
  56.9367371 165.6879120  -5.2819219  56.4447670 166.1710510  -6.1131563
  54.7688751 169.4165955  -3.6269054  54.9390335 170.2544861  -2.7263434
  53.5762482 169.3394470  -4.2353826  53.5309830 168.7441406  -5.0500360
  52.3559418 170.0730438  -3.8462510  52.6813164 171.1129150  -3.8762448
  51.2558708 169.7841644  -4.9033022  51.1367798 168.7189026  -5.1011219
  50.3080978 170.1057129  -4.4715266  51.4169044 170.6433563  -6.1807947
  50.8495979 171.8122406  -6.2379656  51.9123878 170.1462860  -7.1856675
  51.8428574 169.7427063  -2.3851988  51.9982185 168.5871429  -1.8893166
  51.3131561 170.7606354  -1.6632800  51.0739784 171.5902100  -2.1874001
  50.9355392 170.6063843  -0.2714925  51.7902870 170.2127228   0.2785409
  50.6145973 171.9106445   0.4434206  49.6917191 172.2011108  -0.0585988
  50.3737755 171.7466888   1.4937695  51.7981873 172.9473267   0.3529734
  52.9897537 172.5924072   0.5669439  51.5391884 174.0954590  -0.0281477
  49.8348579 169.5817719  -0.1064780  48.7445030 169.6994781  -0.6448848
  50.0809021 168.5951233   0.7462584  50.9623566 168.6170959   1.2388582
  49.3002281 167.4224396   1.0838681  50.0415154 166.8622284   1.6537553
  48.0941658 167.8105011   1.9563711  47.6245041 168.6790161   1.4946333
  47.3749886 166.9940948   1.8902383  48.5164604 168.0981445   3.4312062
  49.0127983 167.1432648   4.0969028  48.1355247 169.2288513   3.8404272
  48.8441162 166.5276947  -0.1389934  47.8808365 165.7608490  -0.1182204
  49.5875092 166.6729431  -1.2589513  50.3634262 167.3187561  -1.2278042
  49.5456390 165.7120209  -2.4073277  48.5166206 165.6420746  -2.7599299
  50.2484360 166.3586273  -3.5660393  50.0532112 165.7757111  -4.4661522
  49.8761826 167.3675995  -3.7435117  51.6749420 166.4050446  -3.4326084
  51.8994026 167.1790161  -2.9108934  50.1227036 164.2924805  -2.0032632
  51.1114616 164.2155457  -1.2787449  49.4569931 163.2628021  -2.4994807
  48.5619888 163.4544525  -2.9265001  49.8463364 161.8599396  -2.3322508
  50.3598366 161.7964935  -1.3728764  48.6449661 160.9214783  -2.3358324
  47.9362221 161.2957306  -1.5971106  48.1717491 160.8262939  -3.3131270
  49.2587624 159.2222748  -2.0569084  49.4005699 158.9449158  -3.3560853
  50.9871750 161.4639130  -3.2750716  50.8254318 161.6609650  -4.4359522
  52.0928879 160.8870697  -2.7285647  52.0877113 160.8002625  -1.7223157
  53.3443604 160.6199188  -3.4607570  53.0805283 160.5910492  -4.5179515
  54.3558731 161.7145538  -3.1408894  54.5575523 161.5726929  -2.0791440
  55.2688904 161.4216614  -3.6592731  54.0169830 163.1863556  -3.4195859
  53.1592445 163.6114197  -2.8983371  54.8935890 163.7330933  -3.0721097
  53.8380775 163.4130859  -4.9127693  54.1923523 162.6353455  -5.8362775
  53.3087425 164.5511932  -5.3522086  52.8931160 164.6368866  -6.2687321
  52.8838081 165.1748352  -4.6809435  53.8148766 159.1103516  -3.2189133
  53.4233818 158.5526428  -2.1833298  54.6520500 158.5745239  -4.0979104
  54.9925232 159.1839447  -4.8278317  55.3742599 157.3494873  -3.7873399
  55.1308289 157.1143188  -2.7512224  54.8143349 156.0766449  -4.5263863
  53.7264442 156.1389008  -4.4993796  55.1907997 155.9008484  -6.0228367
  56.2708092 155.9225311  -6.1685047  54.8239517 154.9598999  -6.4328747
  54.7834587 156.7763519  -6.5284810  55.3655243 154.7484589  -3.9000535
  55.0241356 154.7318420  -2.8650272  54.8397903 153.8880920  -4.3141532
  56.4439621 154.6846924  -4.0449715  56.8641129 157.4815521  -3.9016531
  57.2872658 157.9469604  -4.9277887  57.6173820 156.9355621  -2.8988571
  57.1633682 156.5037842  -2.1066835  59.0833054 157.2199860  -2.6787531
  59.4549713 157.4067535  -3.6862707  59.1016731 158.4985504  -1.7819346
  58.7637062 158.1261139  -0.8148955  60.5532913 159.0564117  -1.6431162
  60.8091431 159.6207886  -2.5398462  60.5669327 159.7941589  -0.8408363
  61.3155022 158.2929535  -1.4873941  58.2066956 159.7324371  -2.3019037
  58.5555840 159.8894501  -3.3225517  57.1673622 159.4508209  -2.1328220
  58.4275932 161.0829163  -1.5338126  59.4240379 161.4909515  -1.7032222
  57.7662086 161.8411255  -1.9530911  58.1428490 161.0678406  -0.4817701
  59.8713226 156.0606842  -2.0627162  59.2793655 155.4236450  -1.1646580
  61.1104965 155.6536865  -2.5403838  61.7676468 156.2089233  -3.7077985
  61.9828644 157.2453613  -3.4478414  61.1321297 156.0878296  -4.5850396
  62.9930534 155.3868561  -3.9679730  63.8569679 155.9811859  -3.6704590
  63.1472855 155.0699005  -4.9994087  62.8544312 154.1035614  -3.0821719
  63.7800636 153.6080322  -2.7893510  62.3233032 153.3387299  -3.6487739
  61.9412575 154.6014252  -1.9639678  61.1910286 153.8278503  -1.8001883
  62.6427803 155.0042877  -0.6461140  63.2748375 156.0449066  -0.5120697
  62.5585480 154.0864563   0.3319674  62.0574493 153.2308502   0.1397728
  63.3239212 154.0946960   1.5348213  63.6979561 155.1015320   1.7205706
  62.5020638 153.5038605   2.7545483  62.4742508 152.4266205   2.5905874
  63.1950150 153.7286072   4.0753250  63.2956314 154.7854004   4.3226128
  62.6583862 153.2688599   4.9052472  64.1895676 153.2839966   4.1112614
  61.0328560 154.0463257   2.8751590  60.4733963 154.0721283   1.9400402
  60.4586716 153.5574799   3.6622009  61.0800858 155.0825348   3.2100031
  64.5576096 153.2173157   1.2997502  64.3583450 152.1100006   0.9187392
  65.7957382 153.7271271   1.6764525  65.9723206 154.6652832   2.0062590
  66.9670181 152.8895721   1.7318224  66.9048233 152.1879883   0.8999463
  68.2520370 153.7029114   1.6311260  68.2303543 154.4937592   2.3809223
  69.1227493 153.1261597   1.9430969  68.6975555 154.3750610   0.2571915
  67.8732529 154.9553833  -0.1573670  69.8781281 155.3627014   0.5151905
  70.7230530 154.8851013   1.0112901  70.1546249 155.8603821  -0.4143024
  69.5054321 156.0895081   1.2369491  69.0307312 153.2838135  -0.7387709
  68.1594315 152.9501801  -1.3023545  69.7612000 153.5866394  -1.4889836
  69.3852310 152.3931732  -0.2199298  67.0209198 152.0368652   3.0353606
  67.0459671 152.5806427   4.1311007  66.9863358 150.6854248   2.9648263
  67.1093597 149.8974609   1.7358911  68.0346985 150.1437988   1.2151572
  66.2102890 150.0642700   1.1426482  67.1079865 148.4018250   2.2139454
  68.1437836 148.1109467   2.3888907  66.7142181 147.7807007   1.4094239
  66.2528381 148.4516754   3.4809864  66.4322586 147.5895691   4.1233859
  65.1995773 148.4277496   3.2013998  66.5799179 149.8109283   4.0781708
  65.6581421 150.2451935   4.4652452  67.5557404 149.7923431   5.3074012
  67.0824738 149.5171356   6.4231553  68.8486404 150.0638275   5.1343665
  69.1092453 150.3103180   4.1902108  69.7952499 150.2582703   6.2332315
  69.4722824 149.6959381   7.1093512  71.1142807 149.7121887   5.7038550
  71.4597778 150.2482300   4.8198934  71.8275681 149.9335785   6.4977732
  71.0778122 148.2285767   5.5474215  70.4867325 147.5137939   4.5118842
  70.7187500 146.2322083   4.8020940  70.4805298 145.4050598   4.1498203
  71.2578430 146.1264648   6.0074396  71.4845200 145.2162323   6.3818445
  71.5147247 147.3735046   6.4839606  72.0780487 147.5378265   7.3906393
  69.9478226 151.6482544   6.8825769  70.8169479 151.8280029   7.7446275
  69.0847473 152.6062927   6.5649748  68.4249954 152.4085236   5.8262448
  69.2229767 154.0304413   7.0036469  70.2615051 154.2387695   7.2608547
  68.9502182 154.9690552   5.8548422  68.0270081 154.5847778   5.4211345
  68.7027130 156.4597473   6.1830497  69.4745483 156.8684998   6.8351841
  68.6188583 157.0024109   5.2414637  67.7561035 156.6226196   6.6983247
  70.0633621 154.9019012   4.7952285  70.1921844 153.9535980   4.2734694
  69.7370682 155.6119080   4.0352764  70.9440994 155.3094330   5.2915268
  68.3533783 154.2187042   8.2609501  67.3489151 154.8329620   8.2033138
  68.7509995 153.6089783   9.3797808  69.5008698 152.9431000   9.2598171
  67.7581558 153.5062103  10.5113201  66.7887115 153.2745514  10.0701761
  68.2327652 152.2877808  11.3604784  69.2503510 152.4664764  11.7078934
  67.6461868 152.1512146  12.2689772  68.1757965 150.9900055  10.6254616
  67.1263962 150.7960358  10.4035406  68.7729187 151.0165253   9.7139578
  68.5964737 149.5810394  11.6689062  68.2025452 148.3258820  10.5205231
  68.9112091 148.3132172   9.6924324  68.3206558 147.3180847  10.9186106
  67.1819839 148.4076996  10.1465406  67.4761810 154.7745819  11.3942909
  66.4428711 154.7657471  12.1266699  68.3022919 155.8064423  11.3791447
  69.1711121 155.7248688  10.8706264  68.0509949 157.0517120  12.1084337
  67.8236847 156.8167419  13.1482525  69.2552032 157.9757385  12.2129593
  68.9459000 158.8786774  12.7393799  70.3506851 157.3040771  13.1001577
  70.7502594 156.3739014  12.6961412  71.1959839 157.9685211  13.2792578
  69.8899994 156.9401093  14.0185251  69.9580383 158.3333588  10.8755646
  69.3545456 158.7473297  10.0677786  70.7548523 159.0537109  11.0607471
  70.3336868 157.4139404  10.4264984  66.8794632 157.9008942  11.5401917
  66.5681076 157.8150940  10.3475103  66.2877579 158.6530609  12.4104462
  66.5621796 158.6618042  13.3824120  65.2333069 159.5179443  12.0423174
  64.6233063 159.0120239  11.2939568  64.4148941 159.8555756  13.3137941
  63.8733368 158.9767456  13.6637611  65.1133881 160.3066864  14.0185623
  63.2380753 160.8024292  12.9043665  63.5700760 161.5433655  12.1771173
  62.6200294 160.2480011  12.1981516  62.3652191 161.6812897  14.1750145
  62.4882736 160.4193726  15.5043325  63.5347519 160.2697144  15.7700214
  61.8439293 160.6412201  16.3550339  62.0946579 159.4770355  15.1232996
  65.7980957 160.8619995  11.4032221  66.6112289 161.5857239  12.0446424
  65.4481659 161.1049500  10.1414833  64.7139587 160.5444031   9.7330179
  65.8060760 162.3627930   9.5446930  66.8084793 162.6224670   9.8850698
  65.8898544 162.1348114   8.0099449  66.6764374 161.3954468   7.8591661
  64.8865662 161.8146820   7.7288017  66.1892624 163.3577576   7.1795120
  65.4500351 164.1527863   7.2774372  67.5421677 163.9044495   7.4812121
  68.3319244 163.1925812   7.2411342  67.7739944 164.7554626   6.8407917
  67.5709229 164.1545715   8.5417366  66.2467346 163.0114288   5.6535845
  65.2024155 162.8095398   5.4153752  66.6425171 163.8435516   5.0713191
  66.8847122 162.1414642   5.4978824  64.8005066 163.4601135   9.8946037
  63.6093521 163.3245087   9.5889378  65.3114471 164.5156860  10.5014277
  66.2630081 164.4060211  10.8217525  64.6925964 165.8170624  10.6190834
  63.6194420 165.6563873  10.7221355  65.1324615 166.4354401  11.9798059
  66.1433258 166.8088837  11.8161297  64.3401337 167.7235260  12.3170967
  63.2656479 167.5504761  12.2567272  64.6125259 168.1612244  13.2774696
  64.5712433 168.4527130  11.5405855  65.0184708 165.4998169  13.1761131
  65.6037064 164.5878906  13.0577984  65.3757629 165.9691925  14.0926991
  63.6353989 165.0058136  13.5622578  63.1581497 164.5514069  12.6940155
  63.7714462 164.2239532  14.3094482  63.0241890 165.8149261  13.9620943
  64.9610596 166.7217560   9.4002876  66.0941696 166.7465363   8.8838196
  63.9167366 167.3744659   8.7852573  62.5301399 167.4069366   9.0582600
  62.3029556 167.9089203   9.9987450  62.1469040 166.4014893   9.2323332
  61.8915672 168.0437317   7.8684545  60.9932137 168.5817108   8.1711788
  61.6854248 167.2733612   7.1253963  62.8857613 169.0006256   7.3561983
  62.7689438 169.9845123   7.8105392  62.8024216 169.1306152   6.2771902
  64.2557602 168.3790283   7.6993175  64.5307007 167.7898254   6.8244810
  65.3222580 169.4299927   8.0952597  65.6708527 169.7018585   9.2729273
  66.0076065 169.9733582   7.0934577  65.6233444 169.8316650   6.1702218
  67.1748734 170.8767700   7.2817154  67.3947678 171.3866272   6.3437424
  66.8997421 171.5473785   8.0957670  68.4331970 170.1625061   7.6992068
  69.5332642 170.6786804   7.4832067  68.3444214 168.9753113   8.3425655
  67.4093094 168.6034546   8.4285135  69.5154877 168.1252136   8.7920990
  70.1490250 168.7629700   9.4085541  68.8984604 167.0171051   9.7295876
  68.2914658 167.3776398  10.5600567  68.3708572 166.3045959   9.0955114
  70.0083084 166.2769775  10.4375362  70.6570435 165.7826996   9.7143860
  70.6371918 166.9510498  11.0191050  69.5041580 165.1656799  11.3734961
  68.3134918 164.9164429  11.6406212  70.4474640 164.3714752  11.9592543
  70.2066116 163.5484772  12.4928904  71.4215469 164.4208832  11.6968994
  70.2243042 167.5695343   7.5847397  69.6540222 166.7720337   6.8542948
  71.5335083 167.8893738   7.4915466  71.8728027 168.5748749   8.1511440
  72.4271240 167.2858429   6.4811740  71.9267883 167.2884674   5.5127969
  73.6815109 168.1378174   6.2948427  74.0775604 168.4212036   7.2700043
  74.7924423 167.5495911   5.3883071  74.3086395 167.4486084   4.4167957
  75.6258926 168.2320404   5.2217765  75.1606979 166.6090088   5.7979155
  73.3517227 169.3460541   5.5927114  73.8096848 170.0301208   6.0865893
  72.7392502 165.7936401   6.8709722  72.7158890 165.5015259   8.0660686
  72.9484711 164.8798065   5.8427119  72.9126511 165.2355499   4.8981147
  73.0653000 163.4492645   6.0470905  73.3965302 163.4129333   7.0849094
  71.6347198 162.8632202   5.9370527  70.9946442 163.3170319   6.6936717
  71.1414566 163.0839081   4.9904313  71.5822983 161.3152618   6.0353174
  72.0965271 160.8533325   5.1925273  72.0096359 160.8122864   7.4031463
  71.5367432 161.4418182   8.1569138  71.6910400 159.7729950   7.4836507
  73.0979919 160.8243561   7.4616804  70.1289215 160.9726257   5.8544812
  69.8131943 161.3573608   4.8847337  70.0710983 159.8876648   5.7671885
  69.4381714 161.2658081   6.6450601  74.0615692 162.9132385   4.9553161
  73.6373138 162.6070404   3.8343987  75.2204285 162.5491028   5.3582916
  75.7728424 162.7108612   6.6879568  75.3586884 161.9608154   7.3617635
  75.7771988 163.7626190   6.9740767  77.2627487 162.2842712   6.5892406
  77.3905792 161.3686829   7.1667123  77.8854065 163.1030731   6.9497271
  77.5726242 162.0249786   5.1272092  78.2110748 161.1511536   4.9972177
  77.9322968 162.9402161   4.6570382  76.1670837 161.7823792   4.5574374
  76.1549606 162.0252228   3.4949009  75.7897568 160.2872009   4.6193342
  75.2695999 159.8317719   5.6066484  76.2020035 159.4594269   3.6124618
  76.5117416 159.8706512   2.7435236  76.0160751 158.0039520   3.6143994
  75.9377136 157.5816498   4.6162167  74.6830673 157.6142731   2.9388964
  74.8723373 157.8590088   1.8937286  74.6135788 156.5301208   2.8499334
  73.3143387 158.0333710   3.5054533  73.3076630 159.1051788   3.7036397
  72.2523804 157.7054596   2.3759255  72.3832474 156.6755066   2.0439885
  71.2907028 157.8282928   2.8741014  72.2806015 158.3304596   1.4833544
  72.9771881 157.3544769   4.8645635  73.7150650 157.7238007   5.5767679
  71.9736099 157.5315399   5.2513223  73.1494141 156.2909851   4.6989326
  77.1949921 157.3185730   2.8608725  77.7492752 157.8420105   1.8970920
  77.4900131 155.9947968   3.1439376  77.0715790 155.6367188   3.9905751
  78.3909225 155.0576935   2.4593732  78.7217636 155.4985962   1.5190279
  79.7193909 154.7577057   3.2177060  80.0841064 155.6853790   3.6587322
  79.5328293 154.1199341   4.0817227  80.8627014 154.0987854   2.4085546
  80.6746902 153.0371857   2.2481120  80.8064423 154.5386810   1.4128500
  82.3222122 154.2526398   2.8960650  82.6810150 155.0950012   3.7111025
  83.2710495 153.3733826   2.5767422  84.1168823 153.4372101   3.1250081
  83.1873093 152.6747894   1.8521361  77.6896667 153.7295532   2.1091390
  77.5015182 152.9140472   2.9815512  77.3724670 153.4730835   0.8431097
  77.5200119 154.1706085   0.1277084  76.4747620 152.3753510   0.4341683
  76.0769119 151.8639984   1.3107142  75.2810669 152.9175720  -0.4389789
  75.7129135 153.3295441  -1.3510574  74.7133560 152.0428467  -0.7562207
  74.4264679 153.9384613   0.2782134  75.0665512 154.5492249   0.9149020
  73.7289352 154.8997345  -0.6700889  73.2917938 154.4058990  -1.5379121
  73.1720505 155.5829773  -0.0288689  74.4793320 155.5265350  -1.1518828
  73.3492737 153.2693939   1.1598116  73.6909027 152.4202423   1.7516981
  72.9670486 154.0054626   1.8670679  72.5701370 152.8293152   0.5374221
  77.2686005 151.3250580  -0.4258598  77.5604935 151.5015717  -1.6319076
  77.6233521 150.2413788   0.3150817  77.2570801 150.2164001   1.2560010
  78.4444046 149.1349182  -0.2255508  78.8172684 149.4124908  -1.2114618
  79.5651169 149.0245056   0.7987421  80.3012009 148.3211823   0.4093488
  80.1663895 149.9319305   0.8547608  79.1905518 148.4553375   2.2229280
  78.6882782 149.3261414   3.2106767  78.5140762 150.3712158   3.0011785
  78.4247894 148.8051147   4.5180678  77.9196930 149.4674072   5.2055607
  78.5955963 147.4274445   4.7257147  78.3162842 146.9558258   5.6562886
  79.0909119 146.5861511   3.7368376  79.1826248 145.5238342   3.9085143
  79.3295441 147.0910034   2.4634833  79.5891342 146.4530029   1.6316291
  77.7175369 147.7363739  -0.5030677  78.2352219 146.9340820  -1.2714659
  76.4881668 147.4747467   0.0204547  76.1640930 148.1012878   0.7433140
  75.6634598 146.3295135  -0.4692842  76.2696609 145.4259949  -0.4039107
  74.4739990 146.1266327   0.4977633  73.9955978 147.0874786   0.6874839
  73.6850891 145.5071564   0.0711727  74.9085541 145.5013733   1.7873143
  75.1817093 144.0787201   1.9549391  75.3823624 143.9316711   3.2690921
  75.7110901 143.0465240   3.7933669  75.3184128 145.1176910   3.8838773
  75.5441971 145.2215118   4.8628263  74.8879395 146.0679626   3.0230706
  74.4887466 147.0423126   3.2632537  75.0473557 146.5875244  -1.8696153
  74.3352051 147.5650330  -2.0187223  75.1053696 145.6365509  -2.8462038
  75.5703354 144.2670441  -2.6509633  74.9494705 143.7888641  -1.8933557
  76.6365433 144.2795410  -2.4247847  75.1694870 143.5127411  -3.9353650
  74.1260147 143.2196198  -3.8198726  75.8316269 142.6604156  -4.0876484
  75.2639694 144.6158600  -5.0443683  74.5278702 144.4659271  -5.8341651
  76.2637558 144.7335205  -5.4623232  74.9279175 145.9201050  -4.3042336
  75.5996094 146.6532745  -4.7507825  73.5295029 146.3755951  -4.6118350
  73.3501740 147.1809692  -5.5714931  72.4871140 145.9357605  -3.9329226
  72.5495682 145.1476135  -3.3044040  71.1062546 146.3679810  -4.2140126
  70.9554367 146.3616486  -5.2935095  70.0872421 145.2835083  -3.5798945
  69.1716537 145.3689728  -4.1651330  70.4937973 144.3279877  -3.9112041
  69.8311539 145.3250122  -2.0929177  69.6916122 146.3179474  -1.6654912
  68.8625183 144.8576355  -1.9156749  70.7720261 144.5144653  -1.1597856
  71.9001923 144.2306519  -1.5232835  70.3173294 144.0943146   0.0500253
  71.0730820 143.8030396   0.6534278  69.3458939 144.1083679   0.3261003
  70.8817596 147.8047028  -3.8273070  70.1635284 148.5390015  -4.5220513
  71.6108627 148.4212036  -2.8788195  72.2507019 147.8549347  -2.3402581
  71.4572601 149.8661194  -2.5220499  70.3880081 150.0615082  -2.6035042
  72.0046158 150.1175537  -1.1108497  73.0526123 149.8309021  -1.0235733
  71.9209824 151.1897430  -0.9333632  71.2032471 149.4397125  -0.0093759
  70.1572876 149.7284393  -0.1128469  71.3670731 148.3637390  -0.0690925
  71.6854477 149.8412933   1.3626134  72.8557434 149.4708405   1.7212406
  70.8936157 150.4521790   2.1252899  72.2192764 150.8579407  -3.3864026
  71.9288712 152.0084991  -3.6039226  73.2966919 150.3279266  -3.9694657
  73.6459427 149.4000092  -3.7768085  74.0148621 151.0253296  -5.0393119
  74.4214401 151.9632874  -4.6611161  75.2316437 150.2188873  -5.5240941
  74.8834229 149.3112640  -6.0171285  76.1262436 150.9761963  -6.5044169
  76.5539398 151.9023438  -6.1204143  76.9288177 150.2705536  -6.7189941
  75.5455933 151.2203674  -7.3939838  76.1486206 149.8347778  -4.3520660
  75.7628555 149.0046234  -3.7603712  77.1069565 149.4368744  -4.6857686
  76.2650909 150.6782074  -3.6715004  73.0836792 151.1135559  -6.2221446
  73.1190948 152.1200562  -6.8877611  72.2061920 150.1015625  -6.5018907
  72.3170319 149.2023163  -6.0555911  71.3814011 150.1742096  -7.6791630
  72.0494308 150.4564056  -8.4929247  70.8389664 148.7254639  -7.9132891
  71.6973953 148.0562134  -7.9707723  70.3131790 148.4117737  -7.0114841
  70.0205536 148.6764526  -9.0806370  69.7500381 147.7658691  -9.2194452
  70.2566986 151.2403107  -7.5598707  70.0406876 152.0186462  -8.4846935
  69.5749588 151.3358154  -6.4180489  69.8207855 150.7353821  -5.6439943
  68.5054169 152.3132172  -6.1813679  67.7088089 152.1828461  -6.9138451
  67.8607330 152.2354889  -4.7349262  67.7160339 151.1757660  -4.5247393
  68.5648575 152.6819763  -4.0328264  66.4402237 152.8483734  -4.4244137
  65.7291718 152.4274750  -5.1352973  66.2763062 152.5396271  -3.3919847
  66.2616425 154.6684418  -4.5792375  67.0455475 155.2504578  -3.0937622
  68.0346909 154.8000183  -3.0112600  67.2473984 156.3214111  -3.0739980
  66.3989029 154.9020386  -2.2884343  68.9519501 153.7626495  -6.3511133
  68.2532578 154.5613251  -6.9734044  70.0973206 154.1258545  -5.7973986
  70.5635223 153.4184265  -5.2475705  70.5073090 155.5265198  -5.8054099
  69.6051941 156.1011658  -5.5954638  71.6120224 155.8763580  -4.7897682
  71.8720856 156.9312744  -4.8770871  71.1614456 155.5005188  -3.3540802
  71.0225754 154.4202881  -3.3101664  71.9776230 155.8137512  -2.7030523
  70.2004395 155.9576263  -3.1182637  72.9504089 155.2138519  -5.0812364
  73.3615265 155.4665680  -6.0585918  73.6807175 155.5690460  -4.3542008
  72.8703613 154.1308746  -4.9872484  70.9687576 155.8491821  -7.2340093
  70.6433411 156.9563599  -7.7085876  71.5950470 154.8993683  -7.9583850
  71.7973785 154.0377502  -7.4717927  71.9749603 154.9376984  -9.3563900
  72.6297379 155.7884369  -9.5450983  72.7503891 153.7136078  -9.7782421
  73.5211563 153.6652832  -9.0090361  72.0781250 152.8556519  -9.7862177
  73.4564056 153.9389038 -11.0795412  72.7525940 154.2470245 -11.8527222
  74.1936493 154.7335815 -10.9653521  74.1271057 152.6392059 -11.5397072
  73.3144302 151.9134064 -11.5099525  74.5654297 152.7505035 -12.5314674
  75.2336197 152.3119965 -10.6441183  75.6192551 153.0724640 -10.1027546
  75.8570099 151.1280975 -10.5398560  75.5253143 150.0867462 -11.2139111
  74.7301788 150.2584534 -11.8125591  76.0414429 149.2271423 -11.0922718
  76.9189529 151.0196991  -9.7661705  77.2479858 151.9381409  -9.5048132
  77.5303345 150.2358704  -9.9448490  70.8104324 155.2799683 -10.2399273
  70.7990494 156.3111115 -10.8880682  69.7784958 154.4113007 -10.2186537
  69.8491592 153.5766907  -9.6542559  68.5209885 154.6586761 -10.9324274
  68.6996689 154.6885529 -12.0072680  67.6194458 153.3668213 -10.6893759
  67.4118576 153.3248138  -9.6201515  66.6888428 153.6259003 -11.1943064
  68.1565247 152.0454407 -11.2970753  69.3401413 151.8582153 -11.5724497
  67.2963181 151.1247101 -11.6987591  67.6521835 150.2798615 -12.1226482
  66.2995682 151.2414551 -11.5848761  67.7521591 155.8616333 -10.5309439
  67.1664124 156.4485168 -11.4509926  67.6731567 156.3014374  -9.2575684
  68.0443573 155.7160492  -8.5229654  67.0100021 157.5334015  -8.7969351
  66.0055466 157.5396576  -9.2201796  66.9127197 157.3493195  -7.2148342
  66.2418823 156.5530090  -6.8923826  67.9240112 157.2774506  -6.8145633
  66.3221359 158.5813293  -6.4679551  66.7873764 159.5209198  -6.7660027
  64.8490295 158.6850891  -6.8065677  64.3640442 157.7293549  -6.6079707
  64.3516541 159.4399872  -6.1975980  64.7220612 159.0274200  -7.8335977
  66.5086365 158.3395691  -4.9533734  67.4726868 157.8632812  -4.7748971
  66.5751114 159.2970276  -4.4366755  65.7358932 157.6516266  -4.6103086
  67.6994247 158.8515320  -9.2036276  67.0304031 159.8770752  -9.3907547
  69.0322113 158.8645782  -9.3629751  69.5560532 158.0047302  -9.2832689
  69.8352966 160.0349426  -9.7260685  69.5863724 160.9308167  -9.1572456
  71.3807983 159.7898407  -9.4115458  71.5563812 158.8302460  -8.9252682
  72.3443756 159.5254822 -10.6321182  72.4179611 160.4365845 -11.2259026
  73.3559875 159.3322906 -10.2751617  72.0535126 158.7093506 -11.2934980
  71.8800964 160.9277344  -8.4725742  72.9691925 160.9104919  -8.4317446
  71.6829300 161.8875427  -8.9500828  71.3762512 160.8704987  -7.0040269
  71.7234955 159.9381561  -6.5587649  71.8599854 161.6709595  -6.4442339
  70.2887039 160.9433441  -7.0107093  69.6364517 160.4576569 -11.1685925
  69.6049576 161.6591644 -11.4721603  69.4023590 159.5554810 -12.0662498
  69.6028290 158.5969086 -11.8191242  68.8796310 159.8354340 -13.3889685
  69.5307007 160.6096039 -13.7950172  69.0164948 158.5737305 -14.2483416
  68.7802887 157.6679535 -13.6898794  68.2016144 158.6051636 -14.9715891
  70.3125534 158.5455475 -15.0904837  70.1927643 157.7550812 -15.8313694
  70.3880310 159.4360657 -15.7144690  71.6468353 158.4104767 -14.3275785
  72.4534302 159.3539276 -14.2941217  71.8583069 157.2985229 -13.6600895
  72.7833862 157.1088104 -13.3018694  71.1802063 156.5500031 -13.6627903
  67.4678497 160.4923096 -13.4351673  67.0914307 160.8959808 -14.5435295
  66.7384796 160.5625000 -12.3423014  67.1347580 160.1762085 -11.4974108
  65.5061874 161.3062592 -12.1673126  65.6226196 162.0877533 -12.9181910
  64.3378677 160.3903656 -12.4874372  63.4183846 160.9438324 -12.2968512
  64.4335785 160.0798035 -13.5278645  64.3515701 159.0950470 -11.6426764
  65.2336197 158.5301208 -11.9442511  64.3576889 159.3522797 -10.5834780
  63.1154060 158.1676636 -11.9038982  63.0295639 157.3669281 -11.1693478
  62.1952515 158.7443237 -11.8096876  63.0715675 157.5475616 -13.3209238
  62.6680412 158.2330322 -14.0661850  64.0567245 157.2398376 -13.6714621
  62.1895943 156.3298950 -13.4070129  61.2667046 156.5274658 -13.0473700
  61.9892845 156.0460052 -14.3553677  62.5866776 155.5846252 -12.8529377
  65.4004364 162.1569519 -10.8972902  66.2158051 163.0700531 -10.7457476
  64.4353867 161.9384003 -10.0222034  63.7062836 161.2869568 -10.2754774
  64.0612030 162.9382172  -8.9503279  63.9584732 163.9417877  -9.3630981
  62.7599297 162.5225067  -8.2686834  62.4584732 161.5814819  -8.7287893
  62.9698067 162.1411743  -7.2693667  61.5900154 163.5379181  -8.2867022
  61.8437195 164.6056061  -8.8865566  60.4644241 163.3043060  -7.7255759
  65.0722580 163.1852417  -7.7610168  64.7924881 164.1228790  -7.0182757
  66.1099625 162.3561249  -7.6608663  66.1989136 161.6692200  -8.3959494
  67.0819321 162.3713531  -6.5693092  67.7625198 161.5216370  -6.6230397
  67.9490433 163.6522980  -6.6471190  67.2771072 164.5088501  -6.5930882
  68.5918961 163.8031769  -5.7798924  68.8752136 163.6600647  -7.8902617
  69.6543198 162.8987885  -7.8508687  68.3386078 163.6161346  -8.8380108
  69.6257858 164.9739075  -7.9086809  70.2890320 165.1047974  -7.0536513
  70.4362717 164.8155060  -8.6201019  68.7592087 166.1424561  -8.1837111
  68.3056793 166.1663818  -9.0858450  68.6068573 167.1502991  -7.3620958
  69.0598450 167.2443237  -6.2092137  69.8267975 166.6468048  -5.9356241
  68.7219009 167.9933929  -5.6220198  67.8281555 168.1336060  -7.6737742
  67.4525223 168.2398529  -8.6052856  67.7645798 168.9442596  -7.0746975
  66.6025696 162.3089905  -5.1205606  67.3822556 162.2608032  -4.1591511
  65.2532425 162.3356171  -4.8411036  64.6677933 162.4933167  -5.6488714
  64.6639328 162.1040649  -3.5103045  65.3452225 162.5305176  -2.7740376
  63.4075165 162.9025879  -3.2115593  62.8796806 162.4110413  -2.3943315
  63.6386681 164.3166809  -2.9243670  64.4142914 164.7069397  -3.5833085
  62.7517395 164.8628082  -3.2456205  63.8585625 164.2747192  -1.8576030
  62.5754929 163.0214996  -4.3752670  61.8480415 162.3976440  -4.4320364
  64.4084015 160.6767426  -3.1213484  63.7304382 159.8972473  -3.7309663
  65.0396805 160.3320160  -1.9557222  65.7328644 160.9755096  -1.6014225
  64.5904617 159.1845093  -1.1891484  63.9476624 158.5716705  -1.8210754
  65.8509750 158.2646942  -0.9208817  65.5190735 157.3110352  -0.5104126
  66.2174683 157.9851074  -1.9086109  66.9692078 158.7246857  -0.0223090
  68.0389404 159.4844818  -0.4678856  68.0731888 159.8600769  -1.4798878
  69.0624313 159.8184662   0.4055365  69.9081345 160.4032593   0.0750882
  69.0451355 159.4803162   1.7530648  69.8164215 159.8672943   2.4024873
  67.9409943 158.7957611   2.2387030  67.8556976 158.4632111   3.2626839
  66.8735504 158.4490051   1.3778644  66.0161743 157.8990631   1.7368399
  63.8917809 159.5675201   0.0643288  63.6940308 160.7533569   0.3533964
  63.3220558 158.5729218   0.7431202  63.5377007 157.6422577   0.4153133
  62.5754471 158.8698425   1.9908291  62.5298424 159.9139709   2.3003578
  61.1224213 158.2739258   1.8613548  61.2714844 157.2076263   1.6914351
  60.5431786 158.3908997   2.7772682  60.5478249 158.7996826   1.0987779
  63.2951012 158.2565308   3.1865776  63.7521973 157.1036987   3.0459323
  63.3005142 158.9010162   4.3407779  62.9787331 159.8532257   4.4400878
  63.7008209 158.2731628   5.6227388  63.9919014 157.2361450   5.4555006
  64.9829407 158.9985809   6.0830388  64.7211609 160.0541840   6.1556816
  65.4773941 158.5083466   7.4017310  65.6057434 157.4287872   7.3231745
  66.4584808 158.9588013   7.5522504  64.7891769 158.6737518   8.2306509
  66.1132736 158.9947510   5.0676064  65.8435593 159.6435394   4.2342739
  66.9749756 159.5562592   5.4285436  66.4451447 157.9727173   4.8848543
  62.5397530 158.2888336   6.6372871  61.7631340 159.2393036   6.7506647
  62.2658386 157.1047516   7.1413660  62.9299736 156.3623657   6.9743857
  61.1711617 156.8297729   8.0606604  60.3127251 157.4277496   7.7546711
  60.8021431 155.4058990   7.8296890  61.7303162 154.8417053   7.9205952
  60.0866280 155.1119690   8.5976429  60.2435646 155.0825500   6.4937663
  60.9502602 155.3834839   5.7203813  59.9475021 153.5728302   6.4545498
  59.1986465 153.2070312   7.1570458  59.5862427 153.2283783   5.4855599
  60.8704872 153.0322418   6.6642051  58.9485970 155.8222809   6.0871859
  59.2358513 156.8419495   5.8304911  58.5072136 155.3113556   5.2314811
  58.2571526 155.7768707   6.9285808  61.4486694 157.1563263   9.5667963
  62.5469589 156.7489166  10.0526991  60.5347404 157.7916718  10.2584276
  59.6384583 158.0709991   9.8859224  60.6238441 157.7682648  11.6670303
  61.6784477 157.9300842  11.8900166  59.9298859 159.0243378  12.2627630
  58.8511848 159.0277710  12.1062107  60.0911560 158.9982452  13.3404522
  60.3374977 159.9420929  11.8388815  60.2122574 156.3833160  12.2264004
  59.0696640 156.1510925  12.5273809  61.2304039 155.4945526  12.3991289
  62.2068138 155.6964264  12.2379694  60.8540611 154.1732178  12.9807482
  59.9421883 153.8625488  12.4707804  61.9693489 153.1709442  12.7193813
  62.9542236 153.4952545  13.0554638  61.6864929 152.2756195  13.2729921
  62.1577568 152.7693481  11.2258883  61.0915985 152.1148834  10.4702234
  60.2348938 151.7788696  11.0355158  61.3149490 151.6878510   9.1632156
  60.5835876 151.0596924   8.6764555  62.5316620 151.9301147   8.5544300
  62.6682587 151.4412842   7.2685084  62.0646553 150.7195740   7.0777454
  63.5228882 152.6450043   9.2582188  64.4214478 152.9074554   8.7196026
  63.3392830 153.0965881  10.5860310  64.0820389 153.7119446  11.0718956
  60.4633369 154.3253479  14.5012398  61.3687630 154.2865143  15.3829165
  59.1713028 154.2724609  14.8091469  58.6017456 154.0500946  14.0052433
  58.5079651 154.0623627  16.0973969  58.8054390 154.8000641  16.8426476
  57.0289001 154.3901520  15.9107666  56.4683304 154.4207001  16.8450718
  56.8229942 155.3092499  15.3621740  56.3777199 153.3427277  15.1093159
  56.3101730 152.5325470  15.6198339  58.7592163 152.6632385  16.6888695
  58.9707832 152.5789948  17.9297428  58.8971634 151.5996857  15.8963757
  58.9125671 151.7790985  14.9025564  59.5507469 150.3328857  16.2769432
  60.1062698 150.4592133  17.2062149  58.5202866 149.2720032  16.4988937
  57.8115044 149.6019287  17.2584171  58.0190125 149.0558929  15.5554323
  59.1473007 148.0508728  17.0985546  60.1807022 147.5392761  16.6926498
  58.5257492 147.5484161  18.1068230  58.9396286 146.7010498  18.4684696
  57.6740723 148.0172577  18.3805695  60.5405579 149.9504547  15.2220774
  60.1651649 149.6743011  14.1010675  61.8035011 149.9304810  15.5986061
  62.0516052 150.1513672  16.5524158  62.9128494 149.6483307  14.6538916
  62.6453362 150.0150604  13.6629095  64.0782776 150.5234070  14.9785700
  63.6262207 151.5050507  15.1203632  64.7752838 150.1217499  16.3098316
  65.1380386 149.0940552  16.3288574  65.5125351 150.8787231  16.5773144
  64.0905304 150.2056427  17.1537380  65.1556778 150.5145416  13.9238367
  64.7134171 150.7871704  12.9656162  65.8241730 151.3515625  14.1253757
  65.7110748 149.5840149  13.8065643  63.1489487 148.1560669  14.4697018
  63.6982040 147.7904053  13.4251108  62.8213310 147.3150787  15.4904776
  62.3348122 147.7534485  16.2593975  62.8993683 145.8536224  15.5220861
  63.8618088 145.4685669  15.1851234  62.7929077 145.2931366  16.9050045
  63.6063995 145.6868591  17.5143623  61.8400192 145.6307983  17.3125629
  62.9802551 143.8058319  17.1725292  62.4393425 143.2957764  16.3754311
  64.0326157 143.5540924  17.0411301  62.4366035 143.4237213  18.5642033
  62.8493576 144.0321503  19.3689022  61.3473930 143.4651489  18.5639248
  62.9837570 142.0122375  18.7814121  63.8616486 141.9157715  19.2714157
  62.5437393 140.8638916  18.2679100  61.4815712 140.7410278  17.5615463
  60.9986534 141.5661926  17.2359848  61.1547394 139.8317871  17.2673092
  63.0891457 139.7710724  18.7221661  63.8574295 139.8525543  19.3727055
  62.8214035 138.8878021  18.3119984  61.8436317 145.1888733  14.5920630
  62.1800613 144.3391113  13.7669830  60.5717201 145.6319275  14.7011013
  60.3207207 146.1823883  15.5098543  59.4856377 145.2315826  13.8928604
  59.5685501 144.1853943  13.5984011  58.1946640 145.2751007  14.7888689
  58.0766144 146.2937012  15.1584721  57.3231468 145.0038452  14.1930685
  58.2240906 144.3568726  16.0453777  59.0219650 144.7191467  16.6936417
  57.3051300 144.5483093  16.5994167  58.3749390 142.8492432  15.7658205
  57.4315987 142.1510925  15.2647371  59.5010681 142.2919464  16.0148125
  59.3028717 146.0748444  12.6614056  58.6211891 145.6113892  11.7354279
  59.9390831 147.2521057  12.5555544  60.5221901 147.4817810  13.3476028
  60.0167274 148.1341095  11.4155855  60.6858482 148.9247894  11.7550154
  60.6297798 147.5332336  10.1560087  59.8674278 146.9629669   9.6252298
  60.9468956 148.2820740   9.4302216  61.7413025 146.5030365  10.3323364
  62.3423386 146.7195587  11.2154980  61.3230095 145.5060883  10.4709320
  62.7936287 146.5460663   9.1954012  63.5631561 145.7768555   9.2604952
  62.2028008 146.4945068   8.2808723  63.6201553 147.8153992   9.3159351
  63.2704773 148.4032288  10.0590906  64.6368637 148.1087646   8.5859709
  65.3439865 147.2708130   7.8548450  65.0868454 146.2946625   7.8218355
  65.8974838 147.6644287   7.1073108  65.0353775 149.3051910   8.5554905
  64.5997238 150.0163574   9.1251945  65.8474808 149.5556793   8.0097446
  58.7096291 148.9142914  11.1554680  58.2172127 148.9984131  10.0481348
  57.9843559 149.3819275  12.1942539  58.4519119 149.4513092  13.0868206
  56.7535477 150.2101440  12.1012278  56.1340179 149.9525452  11.2422037
  55.8918571 149.9595642  13.3576536  56.4578590 150.1886749  14.2605639
  55.0632324 150.6670837  13.3275757  55.4459000 148.4680328  13.4253082
  54.9649849 148.2273407  12.4772120  56.3032990 147.8209076  13.6102276
  54.6030426 148.1416473  14.6752548  54.8650551 148.8023224  15.7303867
  53.7526054 147.2523499  14.5846567  57.0865822 151.7189484  12.0354605
  57.9829025 152.1920166  12.7673416  56.4024849 152.5676270  11.1540365
  55.5763741 152.1681519  10.7320700  56.6132164 154.0463867  11.0116110
  56.7875671 154.4933624  11.9903402  57.9243774 154.2941284  10.1738424
  57.7951279 153.7481384   9.2393465  58.0248184 155.3666534  10.0074310
  58.7516212 153.9499817  10.7945986  55.4596481 154.8133545  10.3484831
  55.1793098 154.5585785   9.1799908  54.8675232 155.7097473  11.1436510
  55.1655617 155.8464661  12.0989418  53.6612740 156.3650208  10.6686153
  53.1482582 155.7042084   9.9698677  52.7071228 156.6642761  11.8308277
  53.2128448 157.3804932  12.4784269  51.6876068 156.9499054  11.5717859
  52.4127884 155.4121246  12.6287889  51.4960823 154.4403687  12.3551016
  51.4708176 153.6186218  13.3953733  50.8469505 152.7371521  13.4091682
  52.2540703 154.0834961  14.3521490  52.3665390 153.5831146  15.2222538
  52.8058128 155.2456970  13.9164448  53.4849930 155.9164734  14.4215832
  53.9570351 157.5991516   9.7700377  53.0439796 158.1556244   9.1327438
  55.2012901 158.1992340   9.8611879  55.9207764 157.7045593  10.3688755
  55.6318092 159.5342560   9.2915058  54.9171906 159.8543854   8.5332603
  55.6425285 160.5633240  10.4362135  56.2037964 160.1656189  11.2817392
  56.0642548 161.4934692  10.0553265  54.2856445 160.9738922  10.9107170
  53.6692200 162.1339264  10.4190397  54.1705589 162.7438202   9.6820936
  52.5370560 162.6407776  11.0210371  52.2474403 163.6231842  10.6783800
  51.8843727 161.9873352  12.0700331  51.0081749 162.4306488  12.5196419
  52.3670311 160.7594604  12.4358196  51.9124756 160.1918488  13.2343130
  53.5670052 160.2902527  11.8790359  54.0438576 159.4446411  12.3522921
  57.0681992 159.4843903   8.7102318  57.7185287 158.4165802   8.7777491
  57.6752090 160.5587158   8.2352591  57.1501198 161.4114227   8.1038456
  59.1279068 160.6501770   7.9680872  59.6084938 160.5572662   8.9419994
  59.4724693 159.7810059   7.4077945  59.5476494 161.9525146   7.2191596
  58.7837410 162.9022980   7.2499280  60.6985359 161.9629669   6.5594411
  61.2208328 161.1053619   6.6682105  61.2708626 163.1796722   5.8672161
  60.4525833 163.8807678   5.7029500  62.2828369 163.8751678   6.7843437
  63.0277786 163.2014771   7.2077818  62.9472733 165.0359344   6.0603471
  62.1984634 165.7514038   5.7204871  63.6203842 165.4979248   6.7825570
  63.4580994 164.5776062   5.2135339  61.5733337 164.4466248   7.8644309
  61.6044121 163.8733673   8.6338558  61.8683319 162.7859650   4.5242481
  62.5364685 161.7615509   4.3636880  61.6186600 163.4642639   3.4091687
  60.8903275 164.1637421   3.3901780  62.2907486 163.2772980   2.1155863
  62.2644958 162.2109375   1.8913159  61.4998894 163.9000702   0.9609305
  62.1013603 163.8279266   0.0547654  60.0674477 163.4279022   0.7470039
  59.5050507 163.7483826   1.6239922  59.6970291 163.7242126  -0.2343708
  60.0234489 162.3390350   0.7246641  61.2923584 165.2970123   1.2566376
  62.1077957 165.7061005   0.9577802  63.7206383 163.8255768   2.1264298
  63.8930168 165.0535431   2.0711570  64.6873169 162.8983154   2.0426302
  64.4198151 161.9250946   2.0055320  66.0388718 163.1962891   1.6821431
  66.3330307 164.0716858   2.2611632  66.8707886 161.9694366   2.1923263
  66.4667511 161.1287384   1.6283298  67.9188004 162.0962830   1.9208790
  66.8448563 161.8186951   3.2715423  66.2206955 163.4267273   0.1952522
  66.1478653 162.4603119  -0.5817267  66.5624390 164.6744537  -0.2171164
  66.6007767 165.4036102   0.4807120  67.1205063 164.9574738  -1.6020004
  66.7233124 164.1942596  -2.2712080  66.7001114 166.3789825  -2.0491869
  65.6125793 166.4074249  -1.9816172  66.9748611 167.1337433  -1.3123368
  67.2430649 166.7975006  -3.4191957  68.3320923 166.7877960  -3.4640899
  66.8341675 166.1555176  -4.1994405  66.9153748 168.2685547  -3.8052666
  65.8817978 168.7708588  -3.3498044  67.6849594 168.8363953  -4.5389075
  68.6609421 164.8583832  -1.5493789  69.3617020 165.3703766  -0.6706855
  69.2784195 164.0432587  -2.3952670  68.6869812 163.5165863  -3.0220895
  70.7203064 163.9438171  -2.5367453  71.2402191 163.9200134  -1.5790237
  71.0719223 162.5757446  -3.2264013  70.5146561 162.4140472  -4.1491218
  72.5830765 162.5568085  -3.6628115  73.1982422 162.9094086  -2.8349650
  72.9288788 161.5771484  -3.9926760  72.7428436 163.3393250  -4.4045882
  70.6724701 161.3473358  -2.3011816  71.4408569 161.3695068  -1.5284011
  69.6692276 161.5658417  -1.9353198  70.7255554 160.0211487  -3.0975740
  71.7719345 159.9992828  -3.4020736  70.4872589 159.1714020  -2.4578376
  69.9954987 160.0254059  -3.9069619  71.3056335 165.0739899  -3.2945235
  71.0069733 165.2483673  -4.4601440  72.1908035 165.8995361  -2.6538956
  72.2648468 165.7219238  -1.6623974  72.7984467 167.0811920  -3.3026688
  72.1934738 167.2378998  -4.1957269  72.7259064 168.3441010  -2.4343534
  72.8780899 169.2485809  -3.0232875  71.7147598 168.3625488  -2.0277321
  73.6730576 168.2996063  -1.2116489  74.9798889 168.8171844  -1.3439009
  75.2918091 169.1985779  -2.3049681  75.8300858 169.0202484  -0.2118437
  76.7828903 169.5229645  -0.2883233  75.2923660 168.6150208   1.0520548
  75.9835663 168.6918793   2.2476797  76.7020950 169.3274384   2.2103701
  74.0278397 168.0270386   1.1922684  73.6655197 167.6844177   2.1502495
  73.1767044 167.8954315   0.0656829  72.2230148 167.4205017   0.2426490
  74.2304153 166.8416901  -3.8360136  74.5765610 167.4943542  -4.8404298
  75.0077133 165.8618622  -3.2665355  74.6409378 165.3724670  -2.4627581
  76.2874374 165.3978729  -3.7436054  76.3389130 165.8619232  -4.7285476
  77.4795074 166.1801147  -3.0386236  77.6597519 165.8945770  -2.0022404
  78.3996658 166.1185303  -3.6196725  77.2362595 167.2377930  -2.9374495
  76.4817963 163.9328613  -3.7723923  75.9478760 163.1631927  -2.9881976
  77.2543488 163.5200500  -4.8466105  77.6636658 164.2468414  -5.4161119
  77.1652069 162.1728210  -5.3055100  76.9824524 161.4534302  -4.5072718
  75.9584198 162.0459137  -6.2728395  75.0589828 162.2168732  -5.6813245
  75.9551239 162.8708191  -6.9853158  75.8190384 160.7833710  -7.0813723
  74.9969177 159.7618561  -6.5769744  74.5232620 159.8914337  -5.6150670
  74.9538116 158.5193939  -7.2518563  74.2757950 157.7466431  -6.9208622
  75.5675964 158.3628845  -8.5079746  75.3573074 157.3843079  -9.4541578
  75.1016388 156.5233765  -9.1149874  76.3966980 159.4060516  -8.9825592
  76.9345093 159.2514801  -9.9062872  76.5459671 160.6320801  -8.2739058
  77.1570511 161.4786224  -8.5502129  78.4937210 161.6478271  -5.9596024
  79.0883102 162.3894806  -6.7401619  78.9540787 160.3892822  -5.7570424
  78.4508209 159.8923798  -5.0359845  80.2648773 159.8493347  -6.1691399
  80.4008331 160.2571259  -7.1707973  81.3662643 160.3565979  -5.3001823
  81.1450272 161.3654938  -4.9519262  81.4622345 159.6882477  -4.4444904
  82.7461243 160.4361877  -5.9724398  82.9179611 159.4302979  -6.3555074
  82.6690750 161.1960449  -6.7501264  83.9256668 160.7742767  -5.0218830
  83.7272949 161.5710297  -4.3049822  84.0884018 159.9064484  -4.3827558
  85.1162643 161.1712799  -5.7920790  85.0322647 162.0438690  -6.2937155
  86.2029114 160.5548553  -6.0760274  86.6839752 159.5003052  -5.4716988
  86.0644226 159.0705872  -4.7996902  87.5210953 159.0350800  -5.7924690
  87.1460495 161.1680298  -6.8021345  86.9441223 161.9963837  -7.3435631
  88.0233994 160.6709747  -6.8596630  80.4238739 158.2489471  -6.2777500
  80.1653671 157.5398560  -5.3019261  80.7226639 157.6264954  -7.4498014
  81.1388550 158.1884460  -8.1785622  80.8292313 156.1449127  -7.5757399
  80.3636017 155.6535950  -6.7214069  80.0717850 155.7194061  -8.8108797
  80.1533508 156.4925079  -9.5749350  80.4643936 154.7643280  -9.1598587
  78.5272827 155.5595093  -8.4647303  78.3277969 155.3345490  -7.4170208
  78.0472717 156.5244751  -8.6276360  77.8667831 154.4415131  -9.3004942
  76.9943542 153.7964020  -8.7794571  78.1674194 154.1341095 -10.5247469
  82.3157120 155.7069702  -7.4079142  83.1903687 156.2918243  -8.0401258
  82.5056686 154.6847992  -6.6730633  81.7060471 154.1502075  -6.3649793
  83.8072205 154.0614014  -6.4721236  84.5222168 154.3524780  -7.2416396
  84.5078659 154.5069122  -5.2202849  83.8245239 154.3555145  -4.3846860
  85.3684998 153.8809814  -4.9844861  84.9727936 156.0122528  -5.3161759
  85.8688812 156.0080872  -5.9367480  84.1893539 156.6634369  -5.7038479
  85.3780975 156.5625916  -3.9089794  85.8653564 155.7526855  -3.1267185
  85.5522537 157.8049774  -3.6821156  83.7990723 152.5015106  -6.7277737
  82.8326035 151.7969360  -6.4353471  84.9236603 151.8784027  -7.1159582
  85.7919159 152.3537445  -7.3166375  85.0260468 150.4296722  -7.2976289
  84.3341446 149.8403625  -6.6958861  84.7583771 150.1170044  -8.8040037
  83.7375641 150.4603729  -8.9717579  85.4032516 150.7641907  -9.3984766
  85.0102997 148.6525269  -9.1319265  86.0832062 148.5310059  -8.9829140
  84.5119476 148.0277100  -8.3907347  84.5116043 148.1672821 -10.5077267
  84.4557571 146.9277496 -10.8454885  84.0500641 149.0180054 -11.3656778
  83.4714127 148.7152710 -12.1361465  84.0223999 149.9940491 -11.1074562
  86.3709030 149.9509430  -6.7401590  87.4752274 150.3430023  -7.2341890
  86.3699112 149.1266022  -5.7012262  85.5029984 148.6895752  -5.4227200
  87.5726852 148.5628052  -5.0339522  88.3062057 148.3766022  -5.8184161
  88.2890854 149.4259949  -3.9892373  87.5690002 149.5700226  -3.1837420
  89.1470795 148.9011841  -3.5690699  88.8648376 150.8253174  -4.5258846
  89.4310226 150.6136475  -5.4329329  88.0288773 151.4604797  -4.8188424
  89.7235413 151.5937958  -3.5114942  89.1667862 152.3712463  -2.7037830
  90.9359512 151.2908173  -3.5067551  87.2942963 147.1785126  -4.3770700
  86.1277008 146.8557129  -4.2287169  88.2905807 146.3144226  -4.0458894
  89.2040253 146.7447205  -4.0221572  88.0567474 144.9123840  -3.5736401
  88.9729385 144.3558960  -3.7711596  87.7833786 144.9157257  -2.0660636
  86.7323914 145.1863403  -1.9645815  87.9140625 143.9135437  -1.6578270
  88.5432587 145.8531189  -1.1689994  89.7509842 145.4255371  -0.5918700
  90.1454544 144.4390106  -0.7856281  90.4557571 146.2444458   0.3103987
  91.3759003 145.9160156   0.7706994  89.9623489 147.5560455   0.5970449
  90.6463013 148.3899689   1.4145678  91.5285339 148.1169434   1.6767328
  88.7594604 147.9758911   0.0562582  88.3658066 148.9067383   0.4369850
  88.0418015 147.1120758  -0.7970557  87.0852051 147.4633636  -1.1547112
  87.0507812 144.0549011  -4.3389940  86.3491135 143.2604523  -3.7000620
  86.8720779 144.2318268  -5.6732101  87.4382858 144.9072876  -6.1664214
  85.9679794 143.3687439  -6.4279976  86.2426453 143.4939423  -7.4753666
  86.0650101 142.3122253  -6.1781106  84.5009995 143.6953125  -6.2297778
  83.7037811 142.8315277  -6.6211777  84.1539688 144.8269348  -5.5633745
  84.9254532 145.3784485  -5.2159028  82.8090668 145.2225647  -5.1927910
  82.2391891 144.3369904  -5.4740415  82.5494385 145.3170471  -3.6339202
  81.4703369 145.3264923  -3.4804311  83.0615921 144.0821686  -2.9266248
  84.1046219 143.8741455  -3.1651947  82.9379120 144.0984344  -1.8437861
  82.5319138 143.2104950  -3.3109539  83.2545166 146.5207367  -2.9486308
  84.2612610 146.1922607  -2.6904271  83.3518677 147.3150482  -3.6886926
  82.6068115 147.0229340  -1.6391277  82.8512802 146.2726746  -0.8871599
  83.1103058 147.8886414  -1.2088305  81.5287399 147.1418610  -1.7473580
  82.4477997 146.4717407  -5.9959154  83.3312149 147.2301483  -6.3820515
  81.1417694 146.7016296  -6.1997094  80.4449005 146.0450745  -5.8781180
  80.6268921 148.0217438  -6.5577221  81.3792343 148.5336761  -7.1577191
  79.3894119 147.9520569  -7.5015931  78.6136551 147.3482513  -7.0307159
  79.0705872 148.9712677  -7.7199593  79.8003311 147.2343140  -8.7907257
  80.7849579 147.6269836  -9.0445690  80.0459518 146.1790924  -8.6712484
  78.8142853 147.4611816  -9.9713364  78.0174637 148.4416046 -10.0001783
  79.0089111 146.7833099 -10.9780827  80.2170563 148.8285370  -5.2802000
  79.8184280 148.1880341  -4.2875195  80.3196487 150.1296234  -5.3200750
  80.7844086 150.5934448  -6.0875182  80.0035858 151.0335388  -4.1797762
  79.0943146 150.6171112  -3.7462907  81.0583801 150.8766022  -3.0802114
  81.2521896 149.8281403  -2.8537829  82.5107574 151.3704071  -3.4890296
  82.6023254 152.3421478  -3.9742417  83.2224655 151.3238068  -2.6647704
  82.8948898 150.6311646  -4.1919351  80.6290970 151.6814575  -1.9333264
  81.2655869 151.4729462  -1.2455785  79.7541351 152.5019836  -4.4859009
  80.1279602 153.0103912  -5.5706353  79.0380707 153.2388916  -3.5921836
  78.8480606 152.8649597  -2.6733952  78.6769257 154.6699371  -3.7883372
  79.4078903 155.0644989  -4.4941096  77.3368378 154.6987915  -4.6439867
  77.5993195 154.2870941  -5.6185126  76.1641693 153.9592743  -4.0428329
  75.9097595 154.5053711  -3.1344550  75.3014297 153.9564514  -4.7089944
  76.3480835 152.9234314  -3.7576959  76.8773880 156.0884247  -4.9834442
  77.6736603 156.6392059  -5.4841399  76.0888672 155.9915771  -5.7297349
  76.4480743 156.5487823  -4.0935726  78.5747147 155.5153351  -2.5443549
  78.0383682 155.1331329  -1.5246930  79.0883560 156.7875366  -2.6242256
  79.4041595 157.1351624  -3.5183849  79.1415329 157.7927704  -1.5153480
  78.8156967 157.3401184  -0.5788420  80.5592880 158.2971191  -1.5963280
  80.7161484 158.6704865  -2.6083055  80.6758728 159.2008362  -0.9981642
  81.6296310 157.2407074  -1.1750265  81.4773865 156.9978790  -0.1233820
  81.5314865 156.2681885  -1.6573910  83.0406952 157.8318481  -1.3164361
  83.3451462 157.8581543  -2.3627234  82.9429932 158.9095306  -1.1854192
  84.1784592 157.3712006  -0.3967947  83.9084320 157.5284119   0.6474618
  84.3176270 156.2993164  -0.5374526  85.5021744 158.0194092  -0.6312765
  85.4591446 158.9916687  -0.3611773  86.2153168 157.5534668  -0.0886602
  85.7546463 158.0552368  -1.6085571  78.1587906 158.9245605  -1.8558668
  78.1471024 159.4154205  -2.9939213  77.3970871 159.3599548  -0.8535810
  77.5021820 158.9601898   0.0679625  76.3832245 160.4265442  -1.0535666
  76.7468948 161.0395050  -1.8782637  75.0183487 159.9300537  -1.5389336
  74.4467392 160.8199768  -1.8024100  74.9365540 158.9431915  -2.6817083
  75.3840637 158.0003204  -2.3673143  73.8788681 158.7842407  -2.8917940
  75.3056793 159.3941803  -3.6028268  74.1214142 159.2558746  -0.4836212
  74.1279678 159.8062134   0.4572275  73.0923538 159.3325500  -0.8346872
  74.4215317 158.2111359  -0.4026846  76.2248611 161.3080292   0.0776393
  76.3485260 160.9280548   1.2002455  75.9877930 162.6045074  -0.1611331
  75.8254318 162.8927612  -1.1154131  75.6480103 163.6584015   0.8427495
  75.5232086 163.1578522   1.8029461  76.7573776 164.7479401   0.9590041
  77.0022202 165.0021362  -0.0722736  76.3002167 165.5948792   1.4706720
  77.9338303 164.2688446   1.7661899  77.7125854 164.1631317   2.8282518
  78.1460724 163.2544708   1.4283658  79.2212753 165.0709686   1.5397727
  79.9761658 164.7844543   2.2719915  79.6252899 164.7823334   0.5694339
  78.9935455 166.5771637   1.5847946  78.1527710 166.8581543   0.9505652
  78.7360992 166.7501526   2.6297317  80.2628174 167.2770233   1.1389920
  80.4597549 167.0185547   0.1826912  80.1318893 168.2782135   1.1627184
  81.0300827 167.0538330   1.7567248  74.2341385 164.2355804   0.4801589
  73.9473419 164.5457764  -0.6896570  73.3228683 164.3708649   1.4288375
  73.6420593 164.1707611   2.3659489  71.8976746 164.5494995   1.3089765
  71.6662369 165.0710602   0.3802666  71.2350235 163.1393127   1.3830572
  71.5502625 162.6186371   2.2872760  70.1592484 163.3131409   1.3587289
  71.5123444 162.5480347   0.5103731  71.3017578 165.4764862   2.4044683
  71.9706421 165.7014923   3.3888988  70.0692596 165.9960632   2.2466278
  69.5867081 165.9503021   1.3605404  69.4474487 166.8786316   3.1781456
  69.7924194 166.7103119   4.1983266  69.9603806 168.2951660   2.7894340
  71.0376740 168.1587219   2.6949835  69.4106293 168.8647614   1.4996570
  68.3273087 168.9666290   1.5641665  69.9058380 169.8183594   1.3165754
  69.5670013 168.1891937   0.6586709  69.6858597 169.3764038   3.8644145
  68.6663666 169.7191315   3.6875513  69.7667694 168.8881226   4.8355632
  70.6105042 170.5823517   3.9285004  70.4809265 171.2475739   3.0748081
  70.3147507 171.0961151   4.8432021  71.6562042 170.2763214   3.8973336
  67.9255066 166.7319794   3.1479135  67.2950058 166.4210815   2.1377404
  67.3343658 166.8529358   4.3213606  67.8918839 167.1026764   5.1256623
  65.8768158 166.6362152   4.4242907  65.5653458 165.7351074   3.8959775
  65.6682129 166.4897461   5.4840751  64.9541168 167.7665100   3.9139206
  64.9012451 168.8473663   4.5783830  64.3132629 167.6975861   2.7691586
  64.4180222 166.8595886   2.2151692  63.4372978 168.7972717   2.1896331
  63.9499969 169.7237091   2.4483731  63.3530884 168.6872559   0.6922253
  63.1088409 167.6360626   0.5391121  62.5596390 169.3797760   0.4112592
  64.5809631 168.8888397  -0.2072579  65.4590378 168.5602722   0.3487436
  64.3913422 168.3204651  -1.1178045  64.7663345 170.3541260  -0.6393424
  65.4092941 170.3525085  -1.5195132  63.8288574 170.8054504  -0.9642141
  65.3376617 171.1509247   0.5316985  64.6200867 171.5392303   1.1270221
  66.6160431 171.4517822   0.7123472  67.5699997 170.8756104  -0.0177451
  67.3050079 170.1656494  -0.6854412  68.4949799 171.2805634   0.0051565
  66.9032288 172.4637604   1.4537278  66.1853027 172.9936829   1.9268655
  67.8015137 172.9248505   1.4297162  62.0436096 169.0044708   2.8488653
  61.7393723 170.0974731   3.3218935  61.2597504 167.9049988   2.9724262
  61.6177559 166.9692230   2.8450201  59.7731285 167.9718323   3.4089022
  59.5582466 168.9167480   3.9079602  58.8712425 167.8250732   2.1852796
  58.8562965 166.7537689   1.9847883  57.9047699 168.2154083   2.5041451
  59.3228073 168.6465912   0.9142426  58.8109283 169.6089172   0.9178597
  60.3878059 168.8773651   0.9391140  58.9570961 167.9774475  -0.3307339
  58.2518425 168.5063629  -1.1758302  59.3960533 166.7334595  -0.5268645
  59.1023331 166.2761841  -1.3781748  60.0563698 166.3581543   0.1388817
  59.5065613 166.8704224   4.3907547  60.0459976 165.7875366   4.2845244
  58.6450157 167.1001740   5.4366875  58.1616135 167.9868011   5.4542661
  57.9870529 165.9748840   6.1958780  58.8335609 165.3391571   6.4554415
  57.4244919 166.5724335   7.4999843  56.7065773 167.3626404   7.2802501
  56.8538971 165.8990631   8.1395836  58.4990273 167.3117065   8.3253431
  59.2448349 166.5498962   8.5523148  58.9003258 168.1584473   7.7684851
  57.9420471 167.7489166   9.6848068  57.3799095 167.0321503  10.2834349
  58.7674522 168.0560913  10.3270292  57.1745148 169.0312500   9.5811071
  57.7213554 169.8424835   9.3301630  55.9182014 169.2690582   9.8474665
  54.9945335 168.3494263  10.0920143  55.2296753 167.4583588  10.5053196
  54.0649147 168.6974182  10.2785826  55.4242477 170.4879761   9.7489767
  56.0409355 171.2759857   9.6117153  54.4365349 170.6683502   9.8584642
  56.8827324 165.2115173   5.4146123  56.3486443 165.8325958   4.4978313
  56.5210419 164.0203552   5.7910690  57.1463547 163.4791412   6.3708763
  55.3158989 163.3259888   5.4285388  54.6358147 164.0520477   4.9830952
  55.6345024 162.4264679   4.1776757  54.6844254 161.9196014   4.0087204
  55.8765984 163.1498260   3.3990555  56.7687759 161.4566498   4.3722758
  56.6524658 160.2769318   5.1458125  55.7264023 159.9661102   5.6064701
  57.7884903 159.4212494   5.2602382  57.5752716 158.5099945   5.7992687
  58.9409637 159.6928406   4.5533590  59.8027420 159.0517731   4.6663680
  59.0324173 160.7860565   3.6897140  59.9338417 160.9300385   3.1125691
  57.9485893 161.6905060   3.6535399  57.9972878 162.5305939   2.9765742
  54.5785408 162.4431152   6.5057588  55.1448212 162.0015564   7.5106673
  53.2705879 162.1096954   6.1956139  52.8417816 162.7128296   5.5082569
  52.4781723 160.9811096   6.7245932  52.9413834 160.7112427   7.6736503
  51.0073204 161.4048615   7.0234866  51.0638313 162.4247437   7.4039164
  50.3913193 161.4652100   6.1262665  50.3225174 160.4659271   8.0149336
  50.3994980 159.4555969   7.6132016  50.7747116 160.6222229   8.9943199
  48.7943268 160.7037811   8.1795502  48.3440018 160.7371826   7.1874866
  48.3593063 159.8595276   8.7144308  48.3759232 161.9211426   9.0151825
  48.9699135 161.9994202   9.9257574  48.5724983 162.8461151   8.4730616
  46.8874092 162.0323334   9.2372856  46.4660263 161.3279724   9.8258467
  46.6790352 162.9654694   9.5627985  46.4319878 162.0072632   8.3361397
  52.5648155 159.7561035   5.8273721  52.5021591 159.9104156   4.6069794
  52.6735458 158.5155640   6.3596811  52.7251167 158.4667511   7.3671823
  52.7834053 157.2398071   5.6582341  53.1466599 157.4213257   4.6467009
  53.8015327 156.2550812   6.3350191  53.5188675 156.1367798   7.3810630
  53.7970924 154.7828827   5.8089557  53.8726311 154.7948761   4.7216420
  54.6447830 154.2641449   6.2566376  52.8699036 154.2739716   6.0724530
  55.2131119 156.8532867   6.2251201  55.2506371 157.8146973   6.7373605
  55.9720001 156.3162079   6.7940974  55.4932861 157.0529938   5.1908445
  51.3782310 156.5965729   5.4663153  50.5483971 156.4853516   6.3948627
  51.1377563 156.0778961   4.2667742  51.8013268 156.0655518   3.5054429
  49.9083099 155.3697205   3.9545524  49.1393509 155.6231079   4.6843481
  49.3310127 155.9687347   2.6069748  49.9548531 155.7328949   1.7448260
  48.3964081 155.4274750   2.4598129  48.9024048 157.4678955   2.6090827
  49.7524757 158.0947113   2.8784771  48.3949089 157.8700714   1.2246836
  47.4691734 157.3819427   0.9199979  48.2627106 158.9512787   1.1842515
  49.1243401 157.6123657   0.4568161  47.7985153 157.6823273   3.6389852
  48.1884270 157.6514740   4.6563931  47.3141975 158.6363983   3.4309363
  47.0906982 156.8690186   3.4788923  50.0404510 153.8245697   3.8106005
  49.2240295 153.0175323   4.2279210  51.1332283 153.3938446   3.2364602
  51.8609352 154.0648041   3.0355515  51.3920479 151.9745636   2.8874626
  51.1042099 151.3653107   3.7442420  50.5079803 151.5715942   1.6859736
  49.4838905 151.8424683   1.9428369  50.8369904 152.1046448   0.7939372
  50.6110573 150.0561829   1.3743448  51.6407356 149.7656403   1.1658772
  50.2319107 149.4862366   2.2225857  49.7370453 149.7616272   0.1440414
  48.4959984 149.7952881   0.1943165  50.3117065 149.4233246  -0.9178076
  52.9001846 151.7994385   2.6804516  53.5657730 152.6987152   2.1430938
  53.4594650 150.6387482   3.1425133  52.9244728 149.9115601   3.5953791
  54.8783379 150.2427826   2.7917502  55.3322830 150.9333344   2.0809870
  55.8169212 150.3818970   4.0324106  55.6160736 149.5910034   4.7550855
  57.2537994 150.1515961   3.5583167  57.5435257 150.7591705   2.7009950
  58.0042076 150.3202362   4.3306804  57.3548508 149.1310272   3.1890738
  55.7224312 151.7115021   4.7652607  56.1114464 152.4670563   4.0826969
  54.6728592 151.9187164   4.9739847  56.5034332 151.8186798   6.1471462
  57.5766907 151.6656342   6.0340362  56.3178444 152.7948303   6.5952411
  56.2361374 151.1278992   6.9468198  54.8633919 148.8699341   2.1136434
  54.2780113 147.9258423   2.6038408  55.6460953 148.7672729   0.9924439
  56.1897011 149.5897522   0.7730813  55.8100929 147.5829010   0.0482602
  55.2433319 146.7480469   0.4604414  55.2350388 147.8617401  -1.3567226
  54.2256546 148.2715912  -1.3210995  55.7290268 148.7277069  -1.7973661
  55.3622398 146.6214142  -2.3109527  56.3949776 146.5149078  -2.6429369
  55.0460510 145.6736145  -1.8752968  54.3629150 146.8706055  -3.4272263
  53.3852425 146.6245728  -3.0128307  54.3716125 147.9197083  -3.7228994
  54.6260223 145.9875336  -4.6295733  54.9514771 145.0666809  -4.3722420
  54.6305199 146.3187714  -5.8964520  54.3358307 147.5420074  -6.1984358
  54.0238800 148.2356110  -5.5338259  54.0628166 147.6832581  -7.1605234
  55.1251907 145.4884338  -6.7955747  55.3961525 144.5629730  -6.4952087
  55.1535072 145.8329468  -7.7445831  57.2770767 147.1614990  -0.0017150
  58.1132278 147.9840393  -0.3722440  57.5088043 145.9028931   0.3746409
  56.7707443 145.2551727   0.6109307  58.8973274 145.3557129   0.1335721
  59.6359367 146.1564636   0.1703073  59.2455063 144.2671814   1.1586448
  58.6648026 143.3568878   1.0094768  60.7276993 143.9675751   1.0251858
  61.2936516 144.8959503   0.9481882  61.1871529 143.4599609   1.8733159
  60.9036751 143.3593903   0.1379207  59.0623741 144.7561188   2.4812205
  58.1432228 144.5795746   2.6947405  59.0434418 144.7398987  -1.2437618
  58.2287178 143.8321228  -1.5629058  59.8345451 145.3380280  -2.1527102
  60.3649826 146.1516266  -1.8755990  60.0543060 144.7919617  -3.5163682
  59.0759392 144.5629578  -3.9388080  60.7830811 145.8394928  -4.3571911
  61.6528664 146.2175903  -3.8199649  61.1860962 145.3122101  -5.2218637
  59.8280754 146.9772797  -4.9294996  58.8188286 146.6452942  -5.1730461
  59.6895294 147.7128906  -4.1371751  60.2802429 147.6889954  -6.1983981
  60.2494469 148.8754272  -6.3914452  60.7699394 146.9969330  -7.2278872
  61.1400795 147.5606079  -7.9798002  60.7933464 145.9873199  -7.2425561
  60.9617310 143.5189514  -3.3737762  61.6808205 143.2713776  -2.3794415
  61.0468063 142.8765869  -4.5004015  60.4954796 143.2341919  -5.2673759
  61.5978622 141.5369873  -4.7381549  61.1098747 140.8902740  -4.0089445
  61.2948341 140.9831390  -6.1479855  62.0209656 141.4323883  -6.8254843
  61.4750519 139.9083252  -6.1680918  59.9402733 141.2797699  -6.5596423
  59.8846626 141.3410797  -7.5160670  63.0871811 141.4368134  -4.5348840
  63.6007118 140.4509583  -4.0237684  63.8592300 142.4103546  -4.9884276
  63.3660126 143.2185974  -5.3399591  65.3044815 142.4378662  -4.9127331
  65.7152023 141.4784241  -5.2271786  65.7798691 143.4297028  -5.9819217
  66.8655167 143.3896637  -6.0705376  65.5213089 143.0824280  -6.9822416
  65.4743652 144.8997192  -5.8012686  64.6960602 145.2845154  -4.8899636
  65.9383545 145.7049255  -6.6418848  65.7881927 142.8384094  -3.5422950
  66.9665604 142.6206970  -3.2530892  64.9219360 143.4580231  -2.6769462
  63.9919090 143.6611633  -3.0144124  65.3605118 143.8764954  -1.3429631
  65.0510635 143.1804962  -0.5632585  66.4349899 144.0592346  -1.3283318
  64.7669983 145.1986847  -0.8671806  64.2769470 145.2114868   0.2977946
  64.7778549 146.2879333  -1.6591870  65.0602112 146.2066345  -2.6255019
  64.4067917 147.6322479  -1.1813622  64.9630280 147.7766113  -0.2551543
  64.9278564 148.8023987  -2.0437524  64.5585022 149.6990967  -1.5461345
  66.4853210 148.9390717  -2.1232371  66.8938904 148.1333313  -2.7331197
  66.8701324 149.8821106  -2.5114517  67.0711212 148.7810822  -1.2177147
  64.3339767 148.7882538  -3.5455835  65.0663376 149.0897675  -4.2944756
  64.0350494 147.7651672  -3.7736778  63.1332512 149.7152710  -3.6206422
  63.4706879 150.7483826  -3.5374355  62.6577911 149.4171448  -4.5550728
  62.4333344 149.3912048  -2.8504441  62.9152184 147.8718872  -0.8722356
  62.0681496 147.2303314  -1.4753351  62.5440369 148.8303986  -0.0142765
  63.3060074 149.2612305   0.4895957  61.2047462 149.2067871   0.3379575
  60.5788536 148.4284515  -0.0985617  60.9211884 149.3265991   1.9314996
  61.4496193 150.1909790   2.3336430  59.8707924 149.6033020   2.0220625
  61.1475792 148.0054932   2.6809626  60.6260986 147.2482300   2.0955582
  62.2041626 147.7884064   2.5240993  60.6602592 147.8637238   4.1474390
  61.0477867 148.6657410   5.0294433  59.8827744 146.8184204   4.4323316
  59.5269547 146.7620697   5.3758979  59.7764511 146.0532532   3.7817030
  60.7150116 150.4515076  -0.4654016  61.3661690 151.4870758  -0.5540175
  59.4849091 150.4068604  -0.9937671  58.9281693 149.5661011  -0.9365241
  58.7144775 151.5154877  -1.5160979  59.3380165 152.3774261  -1.7535201
  57.9708595 151.0382080  -2.7792311  57.4250793 150.1054077  -2.6375110
  57.2261620 151.8155060  -2.9505117  58.8238869 150.7928467  -4.0620537
  59.6821861 150.1529999  -3.8570724  58.2209206 150.1620483  -4.7152076
  59.3239708 152.0424805  -4.7896924  59.1753845 153.1632538  -4.3090925
  59.9116974 151.8612671  -5.9762077  60.2983246 152.6697235  -6.4420638
  60.0310745 150.9003754  -6.2635055  57.6738472 151.8944855  -0.4402342
  57.0069466 151.0768280   0.2145804  57.3309021 153.1978760  -0.4564680
  57.8851433 153.9238586  -0.8875995  56.3124046 153.7415466   0.4925603
  55.6018791 152.9458618   0.7164973  57.0285912 154.2114868   1.7922480
  57.5713654 155.1427917   1.6304380  56.3939705 154.4074402   2.6565180
  57.7742805 153.4869843   2.1195581  55.5104599 154.8432007  -0.1740837
  56.1170845 155.8195343  -0.6339293  54.2007446 154.6918640  -0.1841467
  53.9049606 153.8238068   0.2390317  53.2326279 155.7393188  -0.4018694
  53.6203499 156.3550415  -1.2134541  51.8951874 155.1643372  -0.8990824
  51.4540863 154.5624695  -0.1045491  51.2610092 156.0418396  -1.0252653
  51.9047127 154.4567719  -2.2486243  52.2496948 155.1460876  -3.0192957
  52.5573387 153.5918274  -2.1300905  50.4633636 153.9911194  -2.6235201
  50.1466980 153.2465057  -1.8931971  49.8365135 154.8754425  -2.5089126
  50.3771324 153.4872131  -4.0731268  49.3183899 153.4959869  -4.3321357
  50.8164520 154.2339325  -4.7345667  50.9163094 152.0370789  -4.3038883
  50.4404564 151.3337708  -3.7570453  50.9097176 151.7346954  -5.2675376
  51.9106216 151.9820404  -4.1353178  53.0460243 156.5934601   0.8494962
  52.9138947 156.0810394   2.0039172  53.1664848 157.9575806   0.6448358
  53.3378258 158.2289276  -0.3128266  53.2178268 159.0630798   1.6523165
  52.7919769 158.5118561   2.4907115  54.6960716 159.4510345   1.9108229
  54.6153526 160.0712280   2.8035412  55.6768303 158.3156586   2.1913488
  55.8167763 157.6649170   1.3281806  56.6214676 158.7822113   2.4707808
  55.2989845 157.7648773   3.0527241  55.2815857 160.2928467   0.7988774
  54.7372055 161.2193451   0.6161823  56.2718010 160.6896820   1.0227232
  55.3832397 159.6742859  -0.0928263  52.3996315 160.2327423   1.2341547
  51.9910583 160.3441467   0.0544400  52.1841087 161.1797943   2.1388147
  52.5203133 161.0720215   3.0850973  51.4795265 162.4784546   1.8421000
  51.4441719 162.6128845   0.7609994  49.9815254 162.4622650   2.3766017
  49.4913063 161.6737213   1.8056492  49.9963913 162.2147369   3.4380224
  49.2341728 163.7580414   2.3095391  49.9017143 164.5312653   2.6897991
  49.0309753 163.9228058   1.2513984  47.9202843 163.7909393   3.0005548
  47.0512695 162.9350128   2.9364514  47.6722412 164.8857269   3.7242515
  46.7839241 164.9969940   4.1918268  48.3960152 165.5620117   3.9214761
  52.2871399 163.5805511   2.4881811  52.5792542 163.5484161   3.6988757
  52.7634087 164.4850311   1.6222299  52.5480614 164.3852844   0.6405094
  53.7072983 165.5458527   1.9874597  54.3538857 165.0897369   2.7371216
  54.6016922 166.0786133   0.7725136  53.9231720 166.1945953  -0.0726312
  55.1008987 167.5213318   0.9298434  55.6369553 167.6232605   1.8734316
  55.7580910 167.8400269   0.1207448  54.2511253 168.1989746   0.8474361
  55.8623390 165.2545624   0.4317555  56.4719658 165.6389465  -0.3859935
  56.5580215 165.4463196   1.2486769  55.6351395 163.7646027   0.1945290
  54.8918228 163.5329742  -0.5683124  56.5264664 163.1699371  -0.0054723
  55.2375565 163.3427429   1.1176057  53.0724068 166.6640930   2.7956853
  52.1371384 167.3732147   2.3285086  53.6305161 166.8483429   4.0021639
  54.5367432 166.4654083   4.2306623  53.0576134 167.7959442   4.9625425
  51.9868240 167.9010620   4.7880325  53.3144112 167.1405487   6.3419514
  54.3837166 166.9381409   6.4028945  53.1659012 167.8207703   7.1806121
  52.6741371 165.7745361   6.5802083  53.0948410 164.9899292   5.9513197
  53.0341225 165.2081146   7.9738326  52.6654930 165.8765106   8.7519541
  52.5706329 164.2281494   8.0875711  54.1005821 165.0138397   8.0879698
  51.0693703 165.8034973   6.5425687  50.6530685 165.8459778   5.5360928
  50.6003227 164.9512482   7.0342817  50.7592926 166.6720276   7.1235962
  53.6656189 169.2049561   4.9531016  54.8854866 169.2594299   4.8843489
  52.8651237 170.2125092   5.0139222  51.4692039 170.2371826   4.6600060
  50.9537621 169.5751343   5.3557963  51.5050926 170.0319519   3.5901027
  50.9680290 171.6787262   4.9066653  50.7335625 171.9150696   5.9445796
  50.1225395 171.9097290   4.2586775  52.2319794 172.4418945   4.4902105
  52.2004700 173.4844971   4.8066058  52.3710098 172.4971008   3.4105210
  53.3359032 171.5833893   5.1205721  54.3031197 171.6750946   4.6264219
  53.5205307 171.9955902   6.5717072  52.8542023 171.5560303   7.5047164
  54.3208389 173.0507812   6.7562203  54.7202263 173.4593506   5.9233570
  54.2799492 173.9451447   7.9276829  54.3699303 173.3891296   8.8608856
  55.3916893 175.0020447   7.7702956  55.2662392 175.5232239   6.8212218
  55.3115845 175.6483307   8.6443682  56.7855225 174.3344116   7.8437262
  56.7773514 173.4497528   7.2070050  57.6049080 174.9884186   7.5454078
  57.0421104 173.8602905   9.2829914  57.6650085 174.6633453  10.0394850
  56.6967354 172.7128601   9.6277857  52.9307785 174.7708435   7.9386649
  52.5637360 175.4532776   7.0105743  52.2384949 174.7929840   9.0672178
  52.6254997 174.3555908   9.8912420  50.9755440 175.6336212   9.3009510
  50.5127792 175.6763763   8.3149900  49.9910927 174.9782257  10.2661142
  50.4470673 174.6986847  11.2158756  49.2302895 175.7382355  10.4440594
  49.4794960 173.6501770   9.7002611  49.0203285 173.7636566   8.7182283
  50.2939949 172.9274902   9.7493057  48.3977547 173.1192932  10.6490421
  48.1686707 172.0986633  10.3425484  48.7056084 173.0321350  11.6910248
  47.0907745 173.7903900  10.6171694  46.6534386 173.6038666   9.7260780
  46.3454018 174.3365479  11.5920019  46.7532043 174.4353943  12.8139076
  47.7330666 174.2872620  13.0089035  46.1412048 174.8433075  13.5061293
  45.2069016 174.8738251  11.4103546  44.8283806 174.8897400  10.4741020
  44.6914711 175.2490997  12.1936827  51.2862968 177.0416107   9.7292700
  51.1427383 177.3983459  10.8899345  51.7440414 177.8089142   8.7743874
  51.7759895 177.4317627   7.8379903  52.4365578 179.0644073   9.0813246
  53.1103363 178.9216309   9.9261522  53.2612572 179.5542297   7.8695440
  52.6083298 179.7835388   7.0273995  53.9941978 180.9032745   8.2205753
  54.3225060 180.8871765   9.2598362  54.8679047 180.9941864   7.5752249
  53.2323341 181.6732330   8.0989027  54.2959213 178.4821777   7.5209718
  53.8630486 177.6391296   6.9824500  55.0813789 178.8112183   6.8406196
  54.9026756 178.1536102   8.3647718  51.3093758 180.1106415   9.4213200
  50.4543114 180.3091888   8.6152916  51.3377571 180.8006592  10.5936394
  52.1632118 180.7217407  11.1702623  50.3093452 181.7150116  11.1330004
  49.4216995 181.4890900  10.5421162  50.1431541 181.3749542  12.6204014
  51.0702019 181.4874420  13.1825638  49.3778076 182.0448608  13.0122871
  49.6972084 179.9643860  12.9261236  50.4719887 179.2284546  12.7111082
  49.2175941 179.8090668  14.3958664  48.3329353 180.4016418  14.6289816
  48.9644623 178.7708130  14.6104670  50.0110092 180.1283417  15.0716257
  48.3675346 179.6678009  12.2187109  48.5143585 179.6317139  11.1392431
  48.0465012 178.6565857  12.4686813  47.6336517 180.4627991  12.3509560
  50.7625351 183.1708832  10.8797140  51.9444885 183.5049591  10.9977140
  49.7937088 184.1025238  10.6735325  48.3689728 183.8150482  10.4700890
  47.9592285 183.0589142  11.1397696  48.4025764 183.5551453   9.4120636
  47.6651688 185.1632690  10.6605320  47.3589287 185.2262421  11.7047300
  46.7912941 185.2127838  10.0109196  48.7480392 186.1560059  10.2595711
  48.5994072 187.1072845  10.7705383  48.8091583 186.3223114   9.1840677
  50.0573578 185.5041351  10.7200899  50.8933487 185.7000885  10.0486526
  50.4597321 185.9233856  12.1177187  50.1665955 185.2480011  13.1442537
  50.8784790 187.2388153  12.2725954  51.2455482 187.7991638  11.5166960
  50.9246597 187.8066406  13.6543732  51.6319733 187.2659760  14.2832527
  51.3133163 189.2827606  13.4553690  52.3037758 189.3896484  13.0130224
  50.6589851 189.8497467  12.7931871  51.2674751 189.9069672  14.6894608
  51.5052109 190.8237457  14.5326900  49.5081291 187.6803894  14.3362703
  48.5003242 187.7860413  13.6583643  49.3724060 187.4384003  15.6552715
  50.1614380 187.4073639  16.2850037  48.0388069 187.3215942  16.2878571
  47.5844688 186.4015656  15.9201040  48.2637978 187.0776825  17.7983971
  47.3085899 187.0969696  18.3230972  48.9692307 185.7410278  18.0065746
  49.8214111 185.5858307  17.3449059  49.3278770 185.7583008  19.0357380
  48.2942467 184.9152222  17.7817211  49.0870132 188.1751251  18.3089008
  49.4095039 188.0005493  19.1961021  47.1176910 188.4748077  16.2083588
  45.9152870 188.2881622  16.1413994  47.7181778 189.6691437  16.2188225
  48.7246857 189.6244202  16.1477852  47.0731468 190.9483337  16.3002110
  46.2909393 190.8926849  17.0572815  48.0473328 192.0550079  16.8349438
  48.7635765 192.2943420  16.0489292  47.4020576 192.9267578  16.9435997
  48.7594337 191.9975433  18.1757011  49.2530212 191.0258484  18.1586151
  49.4909973 192.8049316  18.2076416  47.7582474 192.1861877  19.7109661
  46.8304176 190.5986176  19.8714848  47.5778465 189.8431091  20.1136665
  46.1392746 190.7460632  20.7013550  46.1901665 190.2482605  19.0619049
  46.4965401 191.2903137  14.9362745  45.6568527 192.1278687  14.8024893
  46.8990326 190.6792450  13.7922468  47.5245361 189.8880463  13.8454914
  46.5906868 191.1522675  12.3837500  46.9495926 192.1814728  12.3897047
  47.3578720 190.3597870  11.3395395  47.5016518 190.9206085  10.4160070
  48.3734360 190.2355042  11.7154169  46.6946526 189.1268463  11.1125870
  46.8239822 188.7524719  10.2381067  45.0172806 191.2199554  12.1057882
  44.5460243 192.1282043  11.4360876  44.2934532 190.2471313  12.5756731
  44.7365265 189.5135956  13.1101933  42.8333893 190.1042633  12.5043774
  42.5010452 190.5814819  11.5824738  42.5403023 188.6465912  12.6497974
  42.7489319 188.4920654  13.7084312  41.5126190 188.4605408  12.3377819
  43.1754150 188.0675354  11.9794064  42.0514526 190.9564819  13.5427084
  40.8489914 190.9218292  13.6149359  42.8463898 191.7404633  14.3136864
  43.8534088 191.7384949  14.2361708  42.3189850 192.6553802  15.4038363
  41.2485123 192.7310486  15.2129030  42.4256592 192.0579071  16.8470974
  42.5673904 190.9936676  16.6589603  43.6949883 192.4942169  17.6086159
  43.5096741 193.5207825  17.9246845  43.8690987 191.8989716  18.5049820
  44.6095810 192.3634644  17.0302315  41.1118774 192.1997223  17.6700993
  40.3338890 191.5764771  17.2291927  41.2971954 191.8399963  18.6822033
  40.9149551 193.2682495  17.7570896  42.7525330 194.1573792  15.3642836
  41.9452553 195.0707397  15.6849213  43.9263763 194.3778839  14.8230495
  44.4627151 193.5251465  14.7503614  44.6254730 195.6956787  14.8374348
  44.3080292 196.2932434  15.6919785  46.1140213 195.3755188  15.0571518
  46.5876732 196.2671356  15.4679565  46.2211533 194.5912476  15.8065147
  46.8430138 194.9181824  13.8154736  46.3058662 194.0392303  13.4590693
  46.6751595 195.6471405  13.0226784  48.3606682 194.7610321  13.8960857
  48.9784698 194.7156982  14.9665985  49.1017494 194.7326202  12.7973814
  50.0971413 194.8654480  12.9053125  48.6538048 194.8879852  11.9055824
  44.3377151 196.6268768  13.6415606  45.1927834 197.4248657  13.2209463
  43.1911163 196.4814453  12.9885283  42.4894600 195.8301849  13.3104782
  42.8444366 197.3506012  11.8317232  43.7272835 197.5723114  11.2321138
  41.8195305 196.6397552  10.8538151  40.8264465 196.6377411  11.3031301
  41.7732277 197.3202515  10.0035906  42.3238945 195.2218018  10.3838177
  43.3893089 195.1683044  10.1599092  41.8800316 194.1220093  11.3849449
  40.8415604 194.2779694  11.6771030  41.9932594 193.2052460  10.8063068
  42.5596199 194.0669708  12.2353783  41.5614853 194.9080505   9.1350279
  41.7763062 195.5998535   8.3205605  41.6933823 193.8605499   8.8640032
  40.5189514 195.1123505   9.3789358  42.3436394 198.6558990  12.3678389
  41.1666870 198.9927521  12.3287535  43.2607918 199.4834442  12.8640156
  44.2042160 199.1614990  12.7015142  43.0536270 200.8901062  13.2568645
  42.2988930 201.3382874  12.6106377  42.4548836 200.8758850  14.6997566
  42.1435661 201.9109955  14.8401775  41.5573692 200.2577057  14.6790400
  43.5810432 200.4458923  15.6789064  44.2537537 199.7205048  15.2213278
  44.1957550 201.2937927  15.9810371  43.0303497 199.6317596  16.8744984
  43.3689880 198.4535522  17.0827084  42.1522217 200.2438660  17.6133232
  41.7663002 199.6806030  18.3575649  41.9708481 201.1976624  17.3349857
  44.3424110 201.6486206  12.9234219  45.2926674 201.0759888  12.4223652
  44.3610001 202.9180450  13.2215395  43.5494385 203.3473969  13.6424055
  45.4810486 203.7991333  12.9321985  45.5854454 203.7277069  11.8495626
  45.1269188 205.2349243  13.2791691  45.9071846 205.8851776  12.8836269
  44.1741982 205.5179749  12.8316183  45.0378876 205.4706268  14.6561317
  44.4909096 206.2576447  14.7109947  46.8300743 203.3501282  13.5589724
  47.9043846 203.8063202  13.0416117  46.8710747 202.5952301  14.6416979
  45.9987869 202.4393463  15.1263781  48.0561142 202.1121979  15.3508492
  48.7420044 202.9350281  15.5523834  47.6932297 201.6062164  16.7423420
  46.8257637 200.9522400  16.6533184  48.5527420 201.0566101  17.1260948
  47.3463173 202.6463776  17.7516651  48.0334740 203.4880981  17.6653824
  45.9361687 203.3535156  17.6863728  45.1649857 202.6700745  17.3310184
  45.7052078 203.8511047  18.6282673  46.0958481 204.1177368  16.9257298
  47.4925957 201.9866028  19.0952454  48.5586395 201.7934265  19.2149677
  47.1387024 202.6846466  19.8539314  46.9462357 201.0504608  19.2102280
  48.8471909 201.0201111  14.5659456  49.9809151 200.6238251  14.9613409
  48.3383141 200.4695435  13.4570675  47.4621391 200.8104248  13.0879869
  48.9517860 199.2146606  12.8498297  48.9380035 198.4687653  13.6445379
  48.0879250 198.7610474  11.6379976  48.5048409 197.8107910  11.3043985
  47.1046524 198.6372223  12.0918055  48.0788460 199.7156525  10.5701818
  48.1689262 199.2229919   9.7511730  50.4021645 199.3818207  12.3305655
  51.2997055 198.5588226  12.5265293  50.6516304 200.5670319  11.6925249
  49.8811417 201.2100830  11.5788069  51.8990631 201.0771332  11.0179749
  52.2408180 200.4093018  10.2272148  51.5035477 202.3715057  10.2199802
  52.3284073 202.6683350   9.5722179  50.7369919 202.0738068   9.5045338
  50.8576736 203.4040985  11.0909815  49.8134613 203.1782990  11.3071575
  51.3559647 203.5780334  12.0446873  50.7575798 204.7262115  10.3197565
  51.7419014 205.0678711   9.9996214  50.1544456 204.5056763   9.4390240
  50.1058655 205.7430267  11.1624870  49.7205162 205.5131073  12.0673304
  49.9104004 206.9676208  10.8442411  50.5694618 207.6564178   9.9400082
  51.0237198 207.1265411   9.2099514  50.2934685 208.6067657   9.7381239
  49.0966682 207.6240540  11.6285238  48.5101318 207.1190338  12.2773962
  48.9822731 208.6185455  11.4943647  53.1066551 201.3735046  11.9742050
  54.1334991 201.8410797  11.4014006  53.0216446 201.1600952  13.3130093
  52.2735214 200.5962677  13.6905079  54.2619476 201.2758179  14.1114483
  54.7685852 202.1873627  13.7944384  53.8878708 201.4394379  15.5907097
  53.5378838 200.4421997  15.8573637  54.7814064 201.6349335  16.1835709
  52.8593369 202.4957581  16.0098381  53.2197952 203.4456024  15.6149254
  51.8680267 202.2508087  15.6285229  52.7860184 202.5337677  17.5811386
  51.7510986 202.7309875  17.8606892  53.0462532 201.5439606  17.9562168
  53.5742531 203.5509186  18.2964840  54.0454445 204.1959991  17.6784649
  53.5583344 203.8122559  19.5744743  52.7044868 203.2678986  20.3622417
  52.0974312 202.5700226  19.9566040  52.6169319 203.4476776  21.3522511
  54.3354073 204.7658386  20.0587540  54.9013634 205.2959442  19.4116230
  54.2484055 205.0013123  21.0370579  55.1978607 200.0737610  13.8645506
  55.0678978 198.9198303  14.3592882  56.0471687 200.3008728  12.8863344
  56.0924759 201.2264099  12.4845476  56.8195724 199.2573853  12.1784372
  56.2320938 198.3400269  12.2160788  57.0870590 199.6880646  10.7652836
  56.2446823 200.1854095  10.2845011  57.9461784 200.3588409  10.7743273
  57.4411697 198.5767212   9.8108416  58.6057205 198.5940704   8.9919596
  58.6222420 197.4538422   8.2771273  59.2998886 197.2528076   7.4605613
  57.5513954 196.7209167   8.5304317  57.2508774 195.9328766   7.9747496
  56.7535782 197.4250946   9.4636307  55.7666397 197.1658325   9.8173761
  58.0848389 198.9118347  12.9881363  58.5537071 199.6417847  13.8598013
  58.7219315 197.8085480  12.6847849  58.4474792 197.3658600  11.8194494
  59.8785477 197.2089233  13.4382782  59.7716179 197.4526672  14.4952803
  59.8245163 195.6671906  13.2787313  60.7610703 195.2876587  13.6873007
  58.7035675 195.0122528  14.0994244  57.6978645 195.2191925  13.7335911
  58.8900757 193.9384308  14.0844898  58.8259621 195.3484344  15.1290398
  59.8050156 195.2214050  11.8106279  58.8292961 195.3526459  11.3428183
  60.5226059 195.8307800  11.2612324  60.2952728 193.7906189  11.6851730
  59.6007538 193.0884705  12.1463823  60.4874077 193.5825500  10.6326075
  61.2372742 193.6341705  12.2107763  61.2617874 197.8593292  13.0273342
  61.3784294 198.6202698  12.0395813  62.4420090 197.6972198  13.6526470
  63.1307068 198.2735443  13.1904240  62.9860992 196.7479248  14.5315161
  63.9316177 197.2057953  14.8221312  62.3399887 196.6329346  15.9061594
  61.4766312 195.9675751  15.9092798  63.0871315 196.1345978  16.5238533
  61.8721924 197.9268799  16.6518898  62.8097496 199.0291138  16.7358856
  63.7740822 198.9705963  16.2531414  62.4994888 200.1847687  17.3944111
  63.1205940 201.0679169  17.4208488  61.2863693 200.2553253  18.1337223
  61.0267410 201.1840210  18.6200542  60.3746376 199.1797638  18.1005402
  59.4587326 199.2479095  18.6687660  60.6242828 198.0400696  17.3290253
  59.9414406 197.2039337  17.2974644  63.4920807 195.5222778  13.7291403
  63.8507462 195.6463318  12.5736885  63.7047424 194.3309326  14.3949490
  62.8235893 193.7191315  15.4412613  61.7689285 193.8577118  15.2033739
  63.0935478 194.1430969  16.4084644  63.0670090 192.2611694  15.3395195
  62.4531860 191.8186951  14.5549517  62.8026733 191.7707520  16.2763844
  64.5249252 192.1952362  14.9451780  64.6697311 191.3826599  14.2332392
  65.1235809 191.9973755  15.8343134  64.9938736 193.5589294  14.4047537
  65.5741806 194.0898590  15.1593733  65.7287827 193.4828339  13.0796671
  65.1271515 193.3147278  11.9721899  67.0925674 193.4836121  13.0331573
  67.5267258 193.5834198  12.1267090  68.0266266 193.9799042  14.1238127
  68.9374161 194.0182953  13.5262403  68.1597366 192.9995575  15.3310347
  68.7378464 193.5144348  16.0983620  67.1513672 192.8109741  15.6994495
  68.7553024 191.7769470  14.9817438  69.5959549 191.7609100  15.4450436
  67.7245102 195.4180908  14.6212921  66.7318039 196.0159454  14.2092829
  68.6020203 196.0863190  15.4434042  69.3398209 195.5494385  15.8764486
  68.2200775 197.3177338  16.1106377  67.5098343 197.7215118  15.3890972
  67.4060364 196.8717804  17.3872929  66.7713394 196.0260010  17.1228848
  68.1485443 196.5819550  18.1307926  66.5041199 197.8115997  17.9070377
  65.6050491 197.7360229  17.5790596  69.2940216 198.4156799  16.3864365
  69.3101883 199.0961151  17.3951187  70.3997726 198.5741119  15.6213093
  71.0005417 199.3479919  15.8668480  70.9233932 197.8816071  14.4274435
  71.8603821 198.4084930  14.2470770  70.0330963 198.1534882  13.1985378
  69.1036606 197.5933838  13.3010826  69.8039856 199.2190552  13.1850309
  70.6210022 197.7002106  11.8268948  70.4607239 196.6255951  11.7396116
  69.9678879 198.1869507  11.1025877  72.1233139 197.9932098  11.6065817
  72.7128906 197.5611572  12.4151793  72.4691544 197.4566956  10.7230368
  72.5293884 199.4520874  11.5060568  72.0196762 200.1009369  12.2182951
  73.6146622 199.4750977  11.6047716  72.1958542 200.0162506  10.1807671
  71.2101669 199.9818573   9.9631691  72.5683289 200.9524384  10.1107044
  72.7252731 199.6359253   9.4092932  71.5559616 196.4601746  14.6460428
  71.6301117 195.6268921  13.7439518  72.0676498 196.1299438  15.8772173
  71.6328201 196.5645294  17.2331066  70.5642700 196.4147949  17.3876610
  71.9118958 197.6145935  17.3201466  72.2220535 195.6480560  18.2919788
  71.5242081 195.2652588  19.0366840  73.0089722 196.2320404  18.7692947
  72.8015671 194.5615692  17.4291439  73.6675568 194.1258087  17.9274292
  72.0187988 193.8131714  17.3055286  73.1507568 195.1858368  16.0935211
  73.1714249 194.4163361  15.3218164  74.5534897 195.7983093  16.1843777
  75.5468826 195.1058044  16.3843746  74.6351929 197.1376648  16.2375221
  73.7879257 197.6532135  16.0465851  75.8683624 197.9190521  16.2638073
  76.4538651 197.7135315  15.3676786  75.4997711 199.3998260  16.3041134
  74.8158035 199.5641174  15.4714670  75.1282196 199.7356720  17.2722340
  76.7235107 200.3211975  16.1460037  77.2780762 200.1139221  17.0612125
  77.2170944 200.1282806  15.1935005  76.3979340 201.8419189  16.2967319
  75.7451782 202.0483398  17.1449051  77.3517075 202.3586731  16.4033756
  75.7221680 202.3619232  15.0813503  76.3566818 202.0901642  14.2377596
  74.7762909 201.8493195  14.9062204  75.5033188 203.8756256  15.2452250
  76.3305130 204.3854675  15.5207348  75.1452789 204.2748413  14.3893414
  74.8762817 204.2430573  15.9465885  76.6690216 197.5688629  17.4997921
  77.9004364 197.5047760  17.4186172  76.0833054 197.2758636  18.6443386
  75.0745468 197.3108368  18.6084862  76.7908859 197.1074524  19.9369926
  77.6563034 197.7664032  19.8666382  75.9581985 197.5656586  21.1816463
  76.6596909 197.4720001  22.0106487  75.6585388 199.0583344  21.0511703
  74.9686813 199.2664795  20.2333279  75.2308655 199.3566284  22.0083656
  76.6111298 199.5512238  20.8568974  74.7062225 196.7377930  21.4401245
  74.9843216 195.6900635  21.3261261  74.2589264 196.8859711  22.4230118
  73.9183426 197.0398865  20.7501240  77.4165878 195.7153015  20.2532806
  77.8375092 195.4704132  21.3933525  77.3286362 194.8111877  19.2876873
  76.9133377 195.1837463  18.4457626  77.5698853 193.3555145  19.4373322
  77.3961868 192.8212128  18.5032730  79.0678406 193.1588593  19.8021545
  79.3001175 193.2193604  20.8653965  79.3744888 192.1713104  19.4574451
  80.0687103 194.0222015  19.1050377  80.9863434 194.8707123  19.6740627
  81.1541748 195.0216064  20.7302189  81.7835922 195.3420410  18.5897102
  82.6066895 195.9078674  18.7395763  81.2726517 194.9221497  17.3766785
  81.7537003 195.0351868  16.0472031  82.5935287 195.6829071  15.8433437
  81.2270355 194.3529968  14.9824982  81.5470810 194.5748291  13.9751444
  80.0570755 193.5755463  15.3062096  79.5134430 193.0347595  14.5456753
  79.6135941 193.3912659  16.6651039  78.8025742 192.7201385  16.9064484
  80.2649155 194.0389404  17.7053757  76.5500488 192.7965240  20.5122604
  75.4683380 193.2833252  20.6181335  76.9724503 191.7088470  21.2693882
  77.8888168 191.3706970  21.0124130  76.5386887 191.2246094  22.5642395
  77.2529678 190.4935760  22.9430389  75.2890854 190.3016663  22.4103374
  74.9012375 190.1767120  23.4213104  74.4641724 190.8436432  21.9478588
  75.4959564 188.8477783  21.7997169  74.6353760 188.2289886  22.0538902
  75.4736328 189.0076294  20.7217331  76.7226105 187.9860382  22.1886177
  77.1407242 188.0259094  23.3321896  77.3612976 187.2335663  21.2842007
  78.0463791 186.5274048  21.5124474  77.1096344 187.2562866  20.3063202
  76.2718201 192.3125763  23.5926914  75.7531738 193.3721313  23.3148499
  76.4973526 191.9760284  24.8966713  76.7096024 191.0159912  25.1277027
  76.5032425 192.8829041  26.1064301  76.3591461 192.1715393  26.9196320
  77.9408951 193.4439850  26.4753456  77.9438324 194.1480408  27.3074455
  78.4741592 192.5398560  26.7690983  78.7327805 193.9533234  25.2921963
  78.8227463 195.2162018  25.1632290  79.2743530 193.1330719  24.4697952
  75.3942337 193.9300232  26.2107258  75.4688339 195.0163574  25.5616875
  74.4585419 193.7168427  27.1574116  74.7107162 192.9256134  27.7322826
  73.4190369 194.6062469  27.7229424  72.5765381 194.0799103  28.1715698
  74.0012131 195.4447479  28.9329185  73.2964783 196.1509399  29.3719444
  74.1231689 194.7280121  29.7450294  75.3537674 196.1915131  28.8893185
  75.6567307 196.2142029  29.9361248  76.0590057 195.5973663  28.3081665
  75.4308472 197.6524963  28.4259205  74.4914474 198.1384735  28.6894684
  76.2451935 198.1720123  28.9309387  75.6366043 197.6948700  26.9256306
  74.7908401 197.7657013  26.3781109  76.8062286 197.6319733  26.2727528
  78.0009537 197.6820526  26.8863029  78.1207199 197.6643677  27.8890209
  78.8389969 197.4757538  26.3616905  76.7504807 197.5395050  24.9368343
  77.6350784 197.4360046  24.4605198  75.8708115 197.4006042  24.4603977
  72.7090759 195.4521637  26.7132416  72.3478699 194.9555206  25.6447906
  72.3562927 196.7175598  26.9914131  72.4688263 196.9352264  27.9712410
  71.6029968 197.6569366  26.1637325  71.5664749 198.5989532  26.7108898
  72.4118652 197.8877411  24.8591251  72.5274124 197.0084991  24.2253380
  71.9373703 198.6724854  24.2699375  73.4475021 198.1311646  25.0964432
  70.1056824 197.4206848  25.9231453  69.2020950 198.1777954  26.2020950
  69.7783127 196.3894501  25.1177635  70.4701157 195.7095337  24.8362751
  68.3976593 196.0895233  24.6476383  67.9348068 197.0591736  24.4642162
  68.4169693 195.3583069  23.2708244  67.4244537 194.9763794  23.0317745
  68.5879059 196.1027832  22.4932442  69.4460373 194.2286377  23.1371994
  69.2722931 192.9097290  23.6130600  68.3747787 192.6537323  24.1565170
  70.1777039 191.9169464  23.2150669  70.0576630 190.9101105  23.5868950
  71.3234329 192.2158203  22.3958817  71.9721909 191.4472809  22.0023632
  71.5464096 193.6182251  22.0674610  72.3399887 193.9331970  21.4060879
  70.5992737 194.5807648  22.3468647  70.7731400 195.6138153  22.0842361
  67.4109192 195.4184875  25.6936378  66.3481216 194.9735107  25.3354378
  67.8017120 195.4417267  27.0031338  68.6654816 195.8943481  27.2660580
  66.9610748 194.9771576  28.1171360  66.6586990 193.9507599  27.9093819
  67.7386093 195.0681915  29.4536400  67.9648361 196.1161194  29.6506119
  67.0163269 194.8596039  30.2428875  69.0474548 194.2522888  29.5887089
  68.8563080 193.2546692  29.9840965  69.5252609 194.2660065  28.6091080
  69.9985733 195.0929871  30.5245647  70.8473663 194.4654999  30.7964268
  70.3198395 195.9825287  29.9827194  69.3814774 195.5042419  31.8286858
  69.1210175 194.7789917  32.4815712  69.3294830 196.7052917  32.3438568
  69.4796906 197.8211975  31.6976147  69.8256531 197.8661957  30.7497807
  69.4250793 198.6650696  32.2498665  69.0477066 196.7987518  33.6184120
  69.1022873 195.9884491  34.2188530  68.8560715 197.6599884  34.1099777
  65.6178970 195.7370911  28.0631390  64.5936203 195.1068268  27.9344444
  65.6514587 197.0832825  28.1537113  66.5816498 197.4388885  28.3221874
  64.5772324 197.9993134  27.9921665  63.8129234 197.8217163  28.7487335
  65.0232391 199.4210205  28.2734604  65.9222870 199.6134949  27.6879978
  64.2476349 200.1533203  28.0492496  65.4863586 199.6936646  29.7838516
  64.7422791 199.1502991  30.3662643  66.3966980 199.1244507  29.9719696
  65.5986557 201.1655731  30.1979370  65.8292465 202.0906219  29.4059391
  65.2877655 201.3887634  31.4365788  65.2666245 202.3461456  31.7576447
  65.1749496 200.6464539  32.1121140  63.9105339 197.8954773  26.6203537
  62.6777191 197.7730408  26.5093899  64.6307068 197.6682587  25.5018005
  65.6355209 197.7513885  25.5613632  63.9976082 197.4301605  24.2007370
  63.2715034 198.2211151  24.0129681  65.0103912 197.5586395  23.0816002
  65.3342972 198.5993042  23.0960655  65.9060898 196.9387512  23.1210575
  64.3039017 197.2814941  21.7639503  63.6734123 198.2235260  21.0277805
  63.4681129 199.2270966  21.3699741  62.9136581 197.6051788  20.0565338
  62.2664986 198.1272430  19.4831886  63.1058388 196.2461243  20.0317802
  62.5744743 195.2541046  19.1672745  61.9423485 195.6031952  18.3641853
  62.9707336 193.9062500  19.3777084  62.5359077 193.1237335  18.7735672
  63.9305611 193.6556091  20.3945427  64.2056122 192.6341858  20.6123886
  64.4807053 194.6622620  21.2384586  65.2565689 194.3908234  21.9389973
  64.0627975 196.0115356  21.0632381  63.1515236 196.1326294  24.0750561
  62.0232048 196.2017365  23.5957088  63.6053352 195.0056610  24.5596485
  64.5391846 194.9774017  24.9433613  62.7806282 193.7483215  24.6394291
  62.5571747 193.5372162  23.5936737  63.6183548 192.5540466  25.1289310
  64.3485184 192.9974365  25.8059559  62.9872627 191.8674774  25.6932373
  64.2755127 191.8300781  24.0270309  65.5385895 191.8891296  23.5463676
  66.3520813 192.4360352  23.9997387  65.6441498 191.1989136  22.3665257
  66.4172974 191.2240601  21.7171326  64.4853363 190.6669006  21.9786720
  64.0382462 189.9446411  20.8276005  64.7285614 189.7476044  20.0207291
  62.6606674 189.5624084  20.7422981  62.2870750 189.0073242  19.8945312
  61.7794952 189.9886169  21.7339935  60.7221870 189.7735291  21.6865978
  62.2351837 190.7747803  22.8250084  61.4947968 190.9715881  23.5862503
  63.5933533 191.0220642  23.0087070  61.5162010 193.8992310  25.4369106
  60.5402565 193.2701416  24.9653263  61.4095345 194.7876129  26.5013618
  62.2507324 195.2498016  26.8157825  60.1131172 195.0761414  27.1228447
  59.6010056 194.1330261  27.3135471  60.3502350 195.7964020  28.4619732
  60.9390030 196.7053680  28.3385010  59.4289551 196.2402344  28.8392830
  60.9720573 194.9223785  29.5626411  60.3430061 194.0508881  29.7440186
  61.9538727 194.5810699  29.2345562  61.1676331 195.6883240  30.8878689
  61.3185539 196.9172668  30.8911266  61.3602867 195.1231842  32.0854454
  61.6375732 195.7356720  32.8391495  61.3427811 194.1303253  32.2699432
  59.2741966 195.8955383  26.1685314  58.1722755 195.5494843  25.8930950
  59.8946571 196.9895935  25.6931381  60.9042664 197.0011749  25.6675873
  59.2148323 198.0157471  24.9327221  58.3796120 198.3603973  25.5424290
  60.1434174 199.2041779  24.6330185  60.9056549 199.3914948  25.3893318
  60.6523399 199.0537262  23.6809349  59.2537079 200.4702759  24.4907894
  58.3670959 200.2239532  23.9065456  58.8609810 200.8166504  25.4467678
  60.0282249 201.5760803  23.8040390  60.8982658 201.8868866  24.3824177
  60.4549255 201.1894531  22.8785400  59.1989174 202.9365234  23.5497551
  59.9230270 203.6694336  23.1939259  58.3855324 202.6754608  22.8727398
  58.5937347 203.5755920  24.7204132  59.2529182 203.7986450  25.4524097
  58.2290535 204.4897003  24.4934425  57.8597603 203.0129089  25.1263332
  58.6404800 197.4080200  23.6944122  57.5823212 197.8644867  23.2503681
  59.3578568 196.6204376  22.9850750  60.2656326 196.3560791  23.3402634
  58.9059219 195.8719330  21.7831650  58.6700020 196.5462036  20.9598885
  60.0591507 195.0368042  21.2095737  60.6891060 195.7543030  20.6837845
  60.6893654 194.6356354  22.0032959  59.7912827 193.8729401  20.1837807
  59.6762390 194.1889191  18.8113613  59.8023758 195.1884308  18.4221954
  59.3455505 193.2181091  17.8602905  59.2308578 193.4518585  16.8121433
  59.0392761 191.8900757  18.2398949  58.3929787 191.0180511  17.3549709
  58.1663666 191.4179535  16.5121613  59.0823288 191.5833282  19.6246586
  58.7124977 190.6299744  19.9721336  59.4384880 192.5382385  20.5988941
  59.4934464 192.2788391  21.6458435  57.6740074 195.0700378  22.0958462
  56.6318741 195.3802490  21.5396576  57.6930504 194.2906189  23.1535625
  58.5844727 194.0846863  23.5814247  56.4734383 193.6502075  23.6404133
  56.0683784 192.9206848  22.9391060  56.7976570 192.7789764  24.8826523
  57.4071007 191.9836731  24.4534988  57.5017624 193.3041382  25.5280590
  55.5845795 192.2959290  25.7348385  54.9804077 193.1792603  25.9417458
  55.0426979 191.5435791  25.1617546  56.0432854 191.7165680  27.0921249
  56.0536423 190.5287170  27.2999516  56.3574944 192.5618286  28.0364265
  56.7581749 192.2336884  28.9035358  56.1599007 193.5373840  27.8651218
  55.3346519 194.6294098  24.0010910  54.1777153 194.3090515  23.6017208
  55.6226578 195.7458801  24.7145061  56.5604286 195.8199463  25.0822010
  54.5667839 196.6944427  25.1471901  53.8320961 196.0996399  25.6899185
  55.1973839 197.6367035  26.1522274  55.5781441 197.0019836  26.9523792
  56.0373611 198.1840363  25.7244854  54.1814079 198.6316071  26.7222862
  53.7487640 199.1646423  25.8756504  53.3225441 198.1053314  27.1387959
  54.8933792 199.5478668  27.7063541  55.4472694 198.9076233  28.3929348
  55.5762863 200.2515564  27.2303734  53.7653313 200.4120789  28.3119068
  53.2800407 200.9613190  27.5051003  53.0164413 199.8033905  28.8186283
  54.2710457 201.4139404  29.4076538  55.0607910 201.9933167  29.1611977
  53.5281029 202.0709076  29.5988255  54.4872131 200.9737854  30.2906170
  53.9295921 197.4159393  23.9365902  52.7469368 197.7168884  23.9290314
  54.7090340 197.5945435  22.8527622  55.6940193 197.4697418  23.0380535
  54.3705788 198.2567902  21.6014385  53.7269745 199.0867157  21.8931446
  55.6331863 198.8905029  20.9704094  56.0149345 199.4742279  21.8080444
  56.2622986 198.0413513  20.7034588  55.3432999 199.7425232  19.7342110
  54.9445114 199.0522003  18.9908962  54.6028099 200.5176392  19.9316006
  56.5061874 200.4810028  19.0589142  57.4080200 199.8849945  19.1987724
  56.3188171 200.5104370  17.9855442  56.8161850 201.8530731  19.6111431
  56.3378220 202.1445312  20.4515743  57.5924988 202.7700958  19.0762672
  58.2327194 202.5568542  17.9334145  57.9552040 201.8267670  17.2930641
  58.6299934 203.3146820  17.3967896  57.8439369 203.9524994  19.5839596
  57.5089378 204.2616577  20.4852352  58.3866234 204.6272583  19.0640469
  53.5487175 197.4143219  20.6486855  52.5493622 197.9386749  20.0804920
  54.0479050 196.1753082  20.5056305  54.9297714 195.9014893  20.9148178
  53.4499016 195.2657471  19.5355740  53.2675896 195.7955017  18.6005783
  54.5006409 194.1299744  19.2798901  55.4070244 194.6416473  18.9562492
  54.6997871 193.6457520  20.2359066  54.0536957 193.0975037  18.2360630
  53.1962433 192.5967712  18.6856575  53.7428780 193.6027985  17.3216343
  55.2205353 192.1468964  17.7601795  56.0628624 192.7632446  17.4460373
  55.6035194 191.6433411  18.6477966  54.8298874 191.0878296  16.7437382
  55.5876045 190.3059082  16.6929741  53.9341431 190.5568390  17.0659103
  54.5107460 191.7175751  15.4221754  55.1625061 192.4485474  15.1752510
  54.4966698 190.9642639  14.7495384  53.5900612 192.1306610  15.4646387
  52.1723404 194.7242432  20.1340656  51.1838760 194.6836853  19.3973904
  52.0528641 194.3636475  21.3994865  52.7765007 194.5386505  22.0819950
  50.8482895 193.6240540  21.9015560  50.2656059 193.2995453  21.0394173
  51.1388702 192.2377625  22.5987320  51.6189919 192.4817352  23.5463943
  50.1852226 191.7290497  22.7396660  52.1148262 191.3840485  21.8253384
  51.6396980 190.6442871  20.7228050  50.6111107 190.7408447  20.4080353
  52.5191612 189.8606262  19.9376888  52.1884422 189.1846313  19.1630611
  53.8657379 189.7718048  20.3048763  54.5479774 189.1374359  19.7585030
  54.3653069 190.4468231  21.4470749  55.3974075 190.4465485  21.7651386
  53.5025024 191.3056946  22.1096897  53.9519386 191.9939728  22.8101749
  49.8812714 194.5525513  22.5958328  49.0769119 194.1233521  23.3893967
  50.0413437 195.8825989  22.4136467  50.7799835 196.2218628  21.8141327
  49.1496964 196.8288269  22.9199066  49.1808891 196.7168121  24.0036888
  49.5411301 198.2605133  22.5378704  50.3973579 198.5387421  23.1523380
  49.9346275 198.3184052  21.5230236  48.4545479 199.3582306  22.5567608
  48.0659332 199.9964447  23.7285213  46.9438553 200.6773682  23.3955593
  46.4656906 201.3890381  24.0522881  46.5924072 200.4308014  22.0968857
  45.7776947 200.8463898  21.6683598  47.5544319 199.6356354  21.5428429
  47.5888367 199.1394501  20.5841904  47.7052383 196.5272827  22.4399967
  46.7340965 196.7119141  23.1967468  47.4805145 196.1180573  21.1810455
  48.2845116 195.9474640  20.5940304  46.1593018 195.7464905  20.6832733
  45.5246239 196.6219330  20.8206501  46.1915092 195.6675110  19.2121181
  46.9514961 194.9664917  18.8670063  45.2663498 195.2772217  18.7880154
  46.5665779 197.3524780  18.5419331  45.3990211 197.5147095  17.9131298
  45.4031792 194.5899658  21.3227882  44.1973495 194.4220581  21.1105118
  45.9986458 193.8033447  22.1778469  46.9547424 194.0638580  22.3731041
  45.4299507 192.8213654  23.0204010  44.9726105 192.1351013  22.3076725
  46.5529938 192.0974579  23.6799469  47.0807266 192.8006134  24.3242855
  46.0948181 191.2865295  24.2461357  47.1144562 191.7162018  22.8270035
  44.3715210 193.3759003  24.0221844  43.4936218 192.5837250  24.3534107
  44.2850151 194.6781921  24.3205471  44.8640900 195.3957062  23.9083080
  43.1554146 195.2956085  25.0722542  43.1402016 194.7106171  25.9918423
  43.4619446 196.8249664  25.3504238  42.6087074 197.2185822  25.9028225
  44.3582802 196.9142303  25.9641991  43.5969810 197.6020966  24.1883259
  43.6904144 198.5251312  24.4350395  41.7615509 195.0509338  24.4942093
  40.7920685 195.1409912  25.3274021  41.5627441 194.8530731  23.1687965
  42.3968544 194.6624756  22.6321068  40.3492546 194.4119720  22.5335979
  39.5892410 194.9355164  23.1135902  40.3548660 194.6921387  21.0582390
  41.0609856 193.9577942  20.6706448  39.3469658 194.5385284  20.6726837
  40.7838058 196.1511078  20.6478767  41.8623199 196.0748749  20.7860508
  40.5129662 196.4433289  19.1718082  39.4277763 196.4912109  19.0813274
  41.0194702 197.3594971  18.8682156  40.8869896 195.5524445  18.6672935
  40.1642189 197.2433929  21.4679165  40.3832321 196.9923859  22.5057659
  40.6998367 198.1327972  21.1360168  39.0875702 197.3685303  21.3527317
  39.9086723 192.9703217  22.8553162  38.7874451 192.5428467  22.5447311
  40.7668495 192.1549530  23.5115757  41.7252426 192.4593353  23.6060791
  40.5181656 190.7715912  23.9723415  39.4714241 190.4870605  23.8652802
  41.3210258 189.7538910  23.1373348  40.8270721 188.8095398  23.3660374
  41.3879852 190.0101471  21.6152000  41.9499092 190.8768921  21.2672024
  41.7898369 189.1026459  21.1645813  40.3900566 190.0804749  21.1824265
  42.6683311 189.6794891  23.5687561  43.1146774 189.1002808  22.9467449
  40.7494431 190.5609741  25.4719143  41.2641335 191.3800507  26.1823177
  40.3945656 189.3288116  25.9131889  39.9505730 188.6695251  25.2900505
  40.4602623 188.9850769  27.3124752  40.1088905 189.8398895  27.8903427
  39.5450249 187.7385712  27.5227203  39.5881805 187.4179688  28.5636120
  38.5346107 188.0906830  27.3149166  39.8849297 186.6809998  26.5803108
  39.1340485 186.3323975  26.0942535  41.8122635 188.6162720  27.9696159
  41.8193169 188.2569275  29.1430302  42.8815689 188.7111359  27.2307339
  42.8403969 189.0840912  26.2930183  44.3022194 188.2359314  27.5710678
  44.2182465 187.7633514  28.5496979  44.7694702 187.1820068  26.5252476
  44.9589081 187.7044830  25.5875683  45.7621193 186.7962036  26.7574177
  43.8503609 185.9699554  26.3455982  42.9878006 185.7294464  25.3287983
  42.7175674 186.3351135  24.4764271  42.2607460 184.6244659  25.6137600
  41.4389420 184.3376923  25.1014061  42.6085663 184.0823517  26.8205643
  42.2017097 182.9515686  27.5089455  41.4648705 182.2892609  27.0790329
  42.8523903 182.5357666  28.6796246  42.6399918 181.5439758  29.0506382
  43.7116928 183.4399414  29.3296585  44.1906891 183.2266846  30.2738438
  44.0943336 184.6405182  28.6611328  44.6759300 185.3438416  29.2386112
  43.6198502 184.9476929  27.3442574  45.3823853 189.3355865  27.7046490
  45.2959938 190.4099121  27.0581627  46.4014969 189.0720978  28.5408230
  46.5407867 187.9425507  29.4672375  46.5757484 186.9605713  28.9954281
  45.7809639 187.9292145  30.2486458  47.8865585 188.1402130  30.1101398
  48.6471024 187.6111450  29.5358925  47.9000435 187.7814636  31.1393242
  48.1296082 189.6160431  30.0937214  49.1951485 189.8419647  30.1346684
  47.6633415 190.1225281  30.9388008  47.4508324 190.0529175  28.8118248
  46.9809380 191.0260010  28.9547424  48.4765663 190.2456818  27.6799278
  48.7688179 189.3364868  26.9050941  49.2295876 191.4067383  27.7328224
  48.8906136 192.6343842  28.4359570  49.3626289 192.7210388  29.4146233
  47.8158875 192.7984619  28.5143795  49.5135536 193.7132721  27.5749645
  49.6722984 194.5713959  28.2280636  48.8685188 194.0655823  26.7700329
  50.8080559 193.1325531  27.0165997  51.5580025 193.1896210  27.8055344
  51.0308495 193.7218475  26.1271038  50.2567558 191.7185211  26.7220459
  49.9437027 191.7322845  25.6780586  51.4620247 190.6915283  26.7446136
  52.0638618 190.3421936  25.7550869  51.7802734 190.1116028  27.9015160
  51.4054794 190.5251160  28.7433281  52.7819595 189.1199188  28.1174603
  53.6037102 189.3678131  27.4456196  53.2356987 189.1156616  29.6131763
  54.0279503 188.3769379  29.7345428  53.7907944 190.0355682  29.7969265
  52.3003387 188.9048615  30.7773991  51.8700256 189.9105988  31.5998821
  52.1186867 190.9480743  31.4319801  50.9564133 189.4159851  32.5342178
  50.3650398 190.0088348  33.0989456  50.7785988 188.0449982  32.3087387
  49.9523773 187.1284485  33.0029373  49.2975273 187.4611359  33.7947044
  49.9771881 185.7853546  32.5536461  49.2813606 185.0753174  32.9756508
  50.8507042 185.3732910  31.5146809  50.8470078 184.3888245  31.0705967
  51.6617393 186.3061371  30.8548450  52.1351318 185.9511566  29.9513607
  51.6676102 187.6674194  31.2483063  52.4138260 187.6747437  27.5567780
  53.3151131 186.8525543  27.4814510  51.1481628 187.3903046  27.2075253
  50.4439354 188.1140289  27.1879807  50.8028603 186.0360718  26.7254887
  51.3716049 185.3351746  27.3365498  49.3095703 185.7486877  26.9496078
  48.9718742 185.9877472  27.9580288  48.8097916 186.4215698  26.2527905
  48.8900986 184.2941895  26.6970558  49.2531662 184.1204376  25.6840897
  49.4074020 183.3426971  27.7326927  49.1599846 183.5085144  28.7812138
  48.9238167 182.4051666  27.4583130  50.4805336 183.1566925  27.7761593
  47.3975143 184.1381683  26.4373035  47.1290321 184.8929291  25.6981468
  47.2287483 183.1593628  25.9883385  46.8194885 184.3038025  27.3464584
  51.3172073 185.9294586  25.2937317  52.1335716 185.1185608  24.9731960
  50.9285965 186.8376923  24.3862629  50.3933296 187.6037445  24.7693462
  51.2323608 186.7306671  22.9297657  50.8335114 185.7748566  22.5900230
  50.4128838 187.7765656  22.2063618  50.6720963 188.7590332  22.6008816
  50.6391983 187.6705170  21.1454010  48.9159660 187.5877228  22.3203983
  48.2799988 186.3578186  21.8779736  48.8535995 185.6265564  21.3278408
  46.8816071 186.1548920  22.1317139  46.3582306 185.3493805  21.6381397
  46.1407051 187.1953735  22.7000027  44.7596054 187.1660461  22.7406254
  44.4212837 186.5187225  22.1176548  46.8032837 188.3657837  23.1272182
  46.1676598 189.1362457  23.5380306  48.1738358 188.5823822  22.9394722
  48.6190300 189.4951630  23.3069363  52.7376099 186.7282257  22.5497437
  53.0869522 186.0877075  21.5466347  53.6291199 187.2892151  23.3771935
  53.2036896 187.8667908  24.0881844  55.1221390 187.0036163  23.2306900
  55.5157166 187.4458923  22.3154812  55.8905296 187.7491150  24.2888317
  55.7407875 187.4149170  25.3154736  56.9202576 187.5065155  24.0263233
  55.7015877 189.1061859  24.1472988  55.9958420 189.5302582  24.9567261
  55.5507507 185.5110474  23.3373318  56.4488068 185.1301422  22.6795826
  54.7269173 184.7216034  24.0345345  53.9258308 185.1984863  24.4230404
  54.8270607 183.2150116  24.1453171  55.8897095 182.9725494  24.1356201
  54.1565590 182.7833710  25.4758892  53.0820961 182.7473145  25.2960796
  54.4203377 181.7494507  25.6985073  54.4898720 183.5794678  26.8041878
  54.0685196 184.5765991  26.6765556  53.7658463 183.0329132  28.0692654
  54.2925758 182.0961761  28.2514591  53.7875595 183.7789154  28.8636894
  52.7320557 182.7527618  27.8670444  55.9813156 183.7118988  27.1303196
  56.4270897 184.4410858  26.4538040  56.1932373 184.0625153  28.1403980
  56.5090637 182.7906189  26.8836670  54.1974564 182.4226379  22.9976540
  54.2170067 181.1927490  22.9770050  53.7108498 183.1689911  22.0324249
  53.6671486 184.1658783  22.1886730  53.2832489 182.5805969  20.7389545
  53.6721611 181.5659943  20.6528301  51.6946297 182.3759766  20.7771111
  51.1213875 183.2141876  21.1732140  51.3206520 182.0743713  19.7987061
  51.2798386 181.2050781  21.6255608  50.9424934 181.4504089  22.9707432
  51.0806847 182.4713287  23.2948303  50.3862991 180.4495544  23.8009701
  50.1012459 180.6247253  24.8278408  50.0847702 179.1606750  23.2736874
  49.5046883 178.1123962  23.9786224  49.3010674 178.2037811  24.9123173
  50.4295197 178.8690491  21.9245224  50.2056694 177.9205322  21.4591064
  51.0249481 179.8844910  21.1384754  51.1431580 179.6650848  20.0876236
  53.7521477 183.3554535  19.4715824  53.7788086 182.8492432  18.3576450
  54.4589386 184.4731140  19.6553192  54.4614220 184.9131317  20.5644341
  55.2067604 185.1437073  18.6007404  54.5506134 185.2179871  17.7335243
  55.3798828 186.6102142  18.9926910  54.4026184 187.0471039  18.7873039
  55.5743752 186.6987915  20.0615368  56.5483322 187.2585907  18.2697372
  56.4946213 187.3759766  17.0183735  57.4598160 187.8330231  18.9272442
  56.4708710 184.4033508  18.1805077  57.3423767 184.0595856  19.0169792
  56.5980606 184.1228333  16.8927841  55.8525009 184.3125610  16.2383766
  57.8571892 183.5761261  16.3290100  58.0589638 182.5889435  16.7448025
  57.6575813 183.3894501  14.8397579  57.4719658 184.3578796  14.3752298
  58.5216064 182.9214630  14.3679991  56.7534828 182.7913666  14.7256651
  59.0948792 184.3791504  16.5706844  60.0897675 183.7681885  16.9073601
  59.1700821 185.7167511  16.5262909  58.2913170 186.2004547  16.4084034
  60.4284515 186.5014038  16.6873512  61.2008476 186.0337982  16.0767365
  60.2081146 187.9542542  16.0914879  59.6254539 188.5421753  16.8006783
  61.2051964 188.3929138  16.1303940  59.6394997 188.0318451  14.6848412
  58.6420097 187.6162415  14.8276196  59.6304932 189.0957947  14.4481163
  60.4046288 187.2317200  13.6079445  61.6522789 187.1152344  13.6238451
  59.6867561 186.6905975  12.7396126  60.8985062 186.4944611  18.1173763
  62.0923157 186.4221954  18.4075909  60.0090675 186.5536652  19.1426563
  59.0291405 186.5923767  18.9011173  60.4189835 186.5129242  20.5394993
  61.2968979 187.1535645  20.6228085  59.2209244 186.7709656  21.4727421
  58.3681870 186.1558380  21.1854076  59.5726128 186.5809937  22.9401112
  60.3537140 187.2977142  23.1936855  58.7509842 186.7300110  23.6406975
  59.9058189 185.5626831  23.1404114  58.6442604 188.1062164  21.2778072
  58.1851006 188.1236725  20.4349136  60.8746414 185.0644073  20.8563786
  61.8755150 184.8204651  21.4954796  60.0933380 184.0455933  20.3777065
  59.4021835 184.2274017  19.6640205  60.5677185 182.5801086  20.5987606
  60.5811653 182.3663635  21.6675148  59.4827271 181.5957947  20.0414543
  59.2077217 181.9522858  19.0487843  59.9058533 180.5929108  20.0988865
  58.0824890 181.4711914  20.6418800  57.8375053 182.4877319  20.9496994
  56.9058571 181.0165558  19.7231121  57.1623650 180.0560150  19.2762623
  56.0327873 180.8786316  20.3609409  56.6353226 181.7058105  18.9232159
  58.1172295 180.6556549  21.9653473  58.8055840 181.1133118  22.6758480
  57.1697922 180.5839386  22.4995060  58.4768410 179.6369629  21.8202038
  61.9378891 182.1946564  20.0195332  62.7297211 181.5600128  20.7601318
  62.2988243 182.7065277  18.8500824  61.5921097 183.2753296  18.4060974
  63.6550446 182.5536194  18.3403854  63.9291916 181.4997711  18.2919083
  63.8398399 183.1582031  16.9707413  63.3481789 184.1305084  16.9391956
  64.8718872 183.4201355  16.7375813  63.2568016 182.1821594  15.9366188
  63.8335953 181.2574615  15.9181194  62.2515907 181.8517303  16.1982689
  63.1865273 182.9771881  14.3205624  64.8088379 182.7011719  13.7199526
  65.1824951 183.6564941  13.3514090  65.4422836 182.2173157  14.4634085
  64.6745911 182.0648651  12.8452015  64.6845627 183.2076874  19.2019768
  65.7827301 182.6644745  19.4524403  64.4587021 184.4823914  19.5961761
  63.6038399 184.9597321  19.3482876  65.4543228 185.1043091  20.4511929
  66.4173737 185.1237030  19.9410419  65.0924301 186.5823364  20.7303638
  64.8556595 186.9999542  19.7517757  64.2514191 186.5234985  21.4212627
  66.2254181 187.4011688  21.4463120  65.8139801 188.3233337  21.8567066
  66.6810455 186.7821198  22.2191563  67.3505478 187.6769409  20.3889847
  67.0642014 188.1023560  19.2632141  68.5440063 187.5521698  20.8262310
  65.6708755 184.3489380  21.8508034  66.8460083 184.1298370  22.1859207
  64.5669937 183.8618622  22.5343971  63.6206017 184.0609283  22.2431717
  64.8086395 182.9309540  23.6987076  65.2813339 183.5653229  24.4485340
  63.3883743 182.4452972  24.2401619  62.7420578 182.1253967  23.4228210
  63.4710884 181.6881256  25.0198841  62.5412865 183.5564575  24.8905792
  63.1584473 184.0310364  25.6534615  62.3189812 184.3621826  24.1909485
  61.1961899 183.1793518  25.5605812  60.6675720 184.0914459  25.8376541
  60.5647011 182.7038269  24.8101177  61.5116119 182.3780060  26.7753983
  62.3616905 182.5719604  27.2851467  60.6417923 181.6898346  27.4953804
  59.3764229 181.4892578  27.1436348  59.0436249 181.8134003  26.2468224
  58.8497314 180.8455200  27.7166100  61.1009483 181.2368927  28.5935040
  62.0908394 181.2631073  28.7923241  60.4537811 180.8507996  29.2659683
  65.7230301 181.7423706  23.4029541  66.7355881 181.5141907  24.0960255
  65.4845428 181.0028381  22.2881088  64.6782761 181.1762238  21.7050343
  66.3646774 179.9043732  21.8576870  66.5387802 179.1663818  22.6407299
  65.7465820 179.1272888  20.5993443  65.6411133 179.8106384  19.7567253
  66.5982513 177.9414520  20.3144302  66.7652893 177.3808289  21.2341518
  66.1753998 177.2862091  19.5528965  67.5961609 178.2138824  19.9708138
  64.3283539 178.6374207  20.9040108  63.8513451 179.4115448  21.5050735
  63.8303375 178.5560455  19.9378548  64.3511887 177.6614227  21.3887863
  67.8022919 180.3085785  21.6700821  68.7687225 179.7059326  22.1357002
  68.0293427 181.4321899  20.9701328  67.2470779 181.9368134  20.5783176
  69.4046402 182.0398560  20.7338905  69.9029922 181.2529755  20.1677055
  69.3338623 183.3072510  19.8749733  68.4758072 183.8812256  20.2248211
  70.2388306 183.8985291  20.0146847  69.0290527 183.1172638  18.4304409
  69.9071045 182.5567322  18.1096249  68.1065674 182.5986328  18.1694374
  69.0425568 184.4957123  17.8235416  68.3429718 185.1142426  18.3857784
  69.9530411 185.0756073  17.9747047  68.5961456 184.3795166  16.3889923
  69.2769547 183.6454468  15.9580231  67.5664062 184.0397797  16.2780380
  68.8461533 185.6392517  15.7062483  69.8031693 185.9602509  15.7406397
  68.7241211 185.4427338  14.7230959  68.3465118 186.4355774  16.0755043
  70.1443481 182.2370148  22.0530224  71.2636185 181.7998962  22.2037888
  69.5313187 182.8943024  23.0538158  68.6576920 183.3939819  22.9689484
  70.1386185 183.0102234  24.4132004  71.0645523 183.5778503  24.3207436
  69.1382751 183.8548431  25.2708588  68.7584534 184.6049042  24.5771389
  68.3418427 183.1721954  25.5671520  69.8145676 184.5118561  26.4714127
  69.9965744 183.7186432  27.1965237  70.6201019 185.1023865  26.0349731
  68.9096298 185.5428162  27.2188301  69.5369644 186.1303406  27.8891830
  68.4702759 186.2443542  26.5096569  67.7855911 184.8003845  27.8540840
  67.9284210 183.8476257  28.1573277  66.5609970 185.2927856  28.0181465
  66.3016815 186.5869141  27.7952080  67.0576553 187.2216339  27.5813293
  65.4064636 186.9756775  28.0550880  65.6396027 184.4823456  28.4823723
  65.9261093 183.5656586  28.7949677  64.7687149 184.9253235  28.7381325
  70.5553513 181.7206268  25.1132851  71.3439026 181.7891693  26.0489140
  70.2337646 180.4992371  24.6123142  69.5760269 180.5332184  23.8465919
  70.8459167 179.2283325  24.8885288  71.3784332 179.3475037  25.8320961
  69.7130127 178.2885590  25.1447506  69.0791855 178.6899567  25.9354687
  69.0930099 178.1371613  24.2611351  70.1576080 176.9264832  25.6403141
  69.2879639 176.2693634  25.6442471  70.7253799 176.5457458  24.7913246
  70.9461899 176.8633423  26.9308434  70.3461609 176.8513031  28.0143814
  72.2453613 176.7182922  26.8300743  72.8277130 176.7358093  27.6550941
  72.6461334 176.6671143  25.9044056  71.9166794 178.8515778  23.8673706
  73.0047760 178.4513092  24.2380295  71.6547623 178.8701477  22.5438156
  70.7928238 179.2531128  22.1825657  72.6940918 178.5906372  21.5267582
  72.8759232 177.5166473  21.5668449  72.1724701 178.8225098  20.0870094
  72.0883255 179.9092560  20.0908527  72.9230347 178.5278931  19.3535595
  70.8148499 178.1576691  19.7062626  70.0177612 178.5219116  20.3543949
  70.4776459 178.5122375  18.2206783  71.2121429 178.0853424  17.5377502
  69.4861908 178.1115723  18.0095367  70.5019608 179.5945282  18.0934925
  71.0378036 176.6640778  19.8029251  71.2117081 176.2924957  20.8127670
  70.1228485 176.2005463  19.4340076  71.8338394 176.3977509  19.1075802
  74.0926971 179.4250031  21.6733303  75.1687775 178.8876038  21.4228477
  73.9985580 180.6961212  22.1255703  73.0656128 181.0697327  22.2262783
  75.1208191 181.5002289  22.4896622  75.7503738 181.4600677  21.6007614
  74.7043304 182.9767914  22.5957146  73.7454071 182.9561157  23.1135387
  75.3881683 183.5206909  23.2473564  74.6615753 183.7045898  21.2874241
  75.8380814 183.9563446  20.5225868  75.3793335 184.7588501  19.5117531
  76.0173950 185.3016052  18.8300724  74.0951462 185.1142273  19.6697350
  73.5458069 185.6919403  19.0496006  73.5882721 184.3613892  20.7195339
  72.6184082 184.5231171  21.1663151  75.9244385 181.1531372  23.7228241
  77.1352615 181.3772430  23.6679268  75.2795715 180.5702667  24.7472782
  74.2800217 180.4320068  24.7906399  75.9491959 179.8553925  25.8012867
  76.6766129 180.5725403  26.1816502  74.9870682 179.4686737  26.9051476
  74.1323853 178.9860535  26.4311161  75.4452438 178.7834473  27.6183453
  74.3637619 180.6082916  27.7346592  73.8926926 181.2799530  27.0169830
  73.5030823 180.1891785  28.2558880  75.4431229 181.1833954  28.7622070
  76.2873688 182.0187073  28.3713264  75.3836288 180.7159576  29.9144325
  76.6895447 178.6530609  25.1650734  77.8073349 178.3386841  25.5838184
  76.1072235 177.9227905  24.2117844  75.2358093 178.2756195  23.8426685
  76.6501541 176.6946106  23.6307945  77.1832428 176.2666016  24.4797459
  75.5297546 175.7546082  23.0600872  74.9144363 176.4018555  22.4351463
  75.9706650 175.0433197  22.3616791  74.6719894 175.0381165  24.0725231
  74.9653473 174.7603912  25.3154488  75.8750305 175.0597076  25.8147278
  73.9889221 173.9508972  25.8688526  74.1896515 173.6015472  26.7950096
  73.0305252 173.5242004  24.9511356  71.9076920 172.6770935  25.0114822
  71.7821884 172.1114960  25.9229450  71.1118240 172.5831146  23.8383064
  70.2433777 171.9417572  23.8086548  71.5449219 173.2067413  22.6271801
  71.0136642 173.0860443  21.6946583  72.7042160 173.9925995  22.6744614
  73.0222702 174.3889313  21.7214851  73.4069748 174.3150330  23.9034538
  77.6806412 176.9469452  22.5358829  78.2871780 175.9801178  22.1609020
  77.8498001 178.2234802  22.0804977  77.1851654 178.8991394  22.4295464
  78.7277679 178.5698242  20.9629650  79.5679169 177.8809814  21.0509739
  77.9817047 178.3524170  19.6420612  77.4819565 177.3895416  19.7480469
  77.2332764 179.1385498  19.5422173  78.9301529 178.3446960  18.3929672
  80.1570282 178.5584259  18.5149250  78.4737473 178.1327515  17.2319412
  79.3433533 179.9957581  21.0283470  78.8761902 180.9741974  20.4416733
  80.3895111 180.0351562  21.8201332  80.5949020 179.1524658  22.2659779
  80.9351425 181.3294678  22.3495998  80.1798859 181.9690094  22.8064079
  81.8920517 180.9275360  23.5248260  82.7119522 180.2675018  23.2415962
  82.3241196 181.8761749  23.8434334  81.1699066 180.3593750  24.7370739
  81.7128143 180.7956238  25.5755463  80.1375580 180.6981812  24.8240128
  81.1409760 178.8224030  24.8945217  80.8431702 178.0933533  23.9094887
  81.4943085 178.4112091  25.9764023  81.6274872 182.2000122  21.2707100
  81.8406067 183.3848877  21.5421181  81.9169235 181.7438660  20.0930214
  81.5481567 180.8317413  19.8646946  82.5503540 182.5351257  19.0227566
  82.9909973 183.4532013  19.4114590  83.7443848 181.8016205  18.3599319
  83.4431839 180.7637634  18.2176628  83.9784470 182.1412964  17.3510056
  85.0391541 181.8139191  19.2909279  85.2325821 180.9124603  20.0806503
  85.9248886 182.7947845  19.0642357  86.8575516 182.7844391  19.4517078
  85.7690964 183.4607391  18.3210449  81.5134811 183.0063477  17.9100895
  81.7783585 183.8060150  17.0063744  80.3088989 182.4540100  17.9081898
  80.0829010 181.7382050  18.5839539  79.2989578 182.6674652  16.8711491
  79.7440033 182.3627167  15.9239616  78.1344147 181.7127686  17.2204399
  78.5042953 180.7001343  17.0596638  77.7974625 181.9640198  18.2261429
  76.8972702 181.7587128  16.2583370  77.1824112 182.0582581  15.2498379
  76.2097092 180.4301605  16.1577740  76.1089554 180.0163269  17.1611118
  75.2400055 180.5644379  15.6784496  76.8212738 179.7102814  15.6138458
  75.9039230 182.7730255  16.8751373  76.3915176 183.7110596  17.1405239
  75.0554428 182.8729706  16.1982441  75.5386887 182.3781891  17.8231945
  78.9355850 184.1525726  16.7470188  78.7457428 184.8329773  17.7781334
  78.6463318 184.5068970  15.4713411  78.9526138 183.9116516  14.7150488
  77.7350616 185.5742035  15.0503902  77.3537369 186.1886749  15.8659325
  78.4951553 186.4076843  13.9850445  78.9025192 185.6997986  13.2632055
  77.7763062 187.0505524  13.4770164  79.6514130 187.2651672  14.5394716
  79.2090225 188.2523499  14.6730280  79.9389343 186.9338226  15.5372934
  80.9324722 187.3088074  13.6770124  81.7656479 187.7486267  14.2251797
  81.2530899 186.2804413  13.5103846  80.7821884 187.9224396  12.2978821
  81.4891510 187.5384521  11.5624552  79.8201447 187.6085663  11.8928404
  80.8688507 189.3349915  12.3808441  81.8352966 189.5375061  12.5931158
  80.5337067 189.8820648  11.6007872  80.4223328 189.6352234  13.2355881
  76.4964523 185.0377197  14.3949118  76.5077896 183.9310303  13.8745499
  75.4222870 185.8371429  14.4380159  75.4314117 186.6546021  15.0311193
  74.0917282 185.4267578  13.9641056  73.8570862 184.5326996  14.5417738
  73.0668411 186.4121552  14.4321623  73.3927231 187.4156342  14.1584034
  72.1803894 186.1006470  13.8796625  72.7193680 186.4599152  15.9091873
  73.6184387 186.3558197  16.7509212  71.4876099 186.4183807  16.2370090
  74.0008011 185.2088013  12.4257889  73.0235901 184.6383362  11.9045544
  75.0375366 185.6601562  11.6744194  75.7491760 186.0524445  12.2742224
  75.2258835 185.6560364  10.2280941  74.3645248 186.2150116   9.8624182
  76.5327606 186.3336639   9.9478273  77.2639999 185.7702942  10.5274763
  76.6929703 186.3687744   8.8702354  76.7460785 187.7965546  10.4262247
  76.6044998 188.0213470  11.4833555  77.7647934 188.0755005  10.1569357
  75.7699890 188.7241821   9.6513424  75.5528107 188.5232086   8.4459219
  75.1846161 189.6873474  10.2332096  75.2042770 184.2402344   9.5471764
  75.2131729 184.0420685   8.3536015  75.1528168 183.1737671  10.3500624
  75.2631226 183.3958893  11.3291454  75.2003479 181.7116241   9.9264174
  75.2574081 181.5368500   8.8520355  76.4607697 181.0972443  10.4969501
  76.8450317 180.2432098   9.9392166  77.2889557 181.8009491  10.4131374
  76.2209244 180.7392120  11.8605947  76.1264801 181.5526428  12.3616161
  73.8090820 180.9796448  10.2365723  73.6781845 179.8131714   9.8362474
  72.8956909 181.6113434  10.8831358  73.0429611 182.6039276  10.9979820
  71.5425949 181.1214142  11.1342907  71.4791641 180.0342102  11.0886650
  71.1626968 181.4894257  12.6018686  71.1787415 182.5791321  12.6216421
  70.2459030 181.0121460  12.9479780  72.2518921 180.9724274  13.6267443
  73.2245865 181.2717438  13.2364025  72.1749802 181.4716644  15.0916986
  71.2190781 181.1676941  15.5182657  72.9383240 181.0798340  15.7639065
  72.2999191 182.5536957  15.1329784  72.1728058 179.4226074  13.6496763
  72.5234680 179.0696411  12.6798506  72.8795929 178.9916229  14.3587675
  71.1255112 179.1288605  13.7202606  70.4809952 181.6842499  10.1757898
  70.6001205 182.8120880   9.7036896  69.3944702 180.9333801   9.9839106
  69.3826981 179.4978027  10.0049000  69.0010223 179.0818634  10.9373226
  70.3677673 179.1036530   9.7551365  68.3504868 179.1427307   8.9024820
  67.9625320 178.1320648   9.0295601  68.9055405 179.2745209   7.9736910
  67.2696915 180.2531891   9.1150684  66.6562805 180.0274658   9.9873495
  66.7350540 180.2392883   8.1652918  68.2173691 181.4595642   9.3063707
  68.5454483 181.8785248   8.3550873  67.5021744 182.4949188  10.1232901
  67.3493958 182.3325653  11.3122301  67.1861801 183.6101379   9.5422716
  67.4819107 183.7605286   8.5883169  66.2808685 184.5959320  10.1008282
  66.4338379 184.6369629  11.1792603  66.4815292 186.0341339   9.5918970
  65.7663269 186.7355499  10.0215521  67.8721161 186.4691162  10.0358982
  68.5527039 186.1185608   9.2600088  67.9455261 187.5544128  10.1054688
  68.0312119 186.0404968  11.0253792  66.4113770 186.1663055   8.1557188
  66.2229767 187.0654602   7.8770661  64.7662430 184.2513580   9.9358358
  63.8818359 184.9410858  10.4441748  64.4047241 183.0789337   9.3442287
  65.1039734 182.4956512   8.9072809  63.0163307 182.6311951   9.1504745
  62.3426170 183.4861298   9.2078934  63.0169106 182.0304718   7.7710381
  63.4569893 182.6431580   6.9842491  63.5823593 181.1046906   7.8773541
  61.6722679 181.8440704   7.2006412  60.8120308 182.6777039   7.3520980
  61.4048462 180.6539459   6.6899509  60.4713020 180.5930023   6.3093190
  62.1862564 180.0842438   6.3984818  62.6796188 181.6033020  10.2443781
  63.5584564 180.7830353  10.4871712  61.5056725 181.5541534  10.9049673
  60.3736420 182.4726562  10.7554560  60.0213966 182.6880188   9.7466726
  60.6398888 183.4533081  11.1498270  59.2928391 181.9024658  11.6388807
  58.6591568 181.2377625  11.0517511  58.7538338 182.6840820  12.1742716
  59.9889107 181.0245972  12.6898918  59.2983627 180.2543945  13.0334597
  60.2688560 181.5371552  13.6102285  61.2845917 180.5538330  11.9798975
  62.0278549 180.6491394  12.7714634  61.1781845 179.1223145  11.5623398
  61.6965179 178.2688141  12.2971802  60.6917229 178.8215942  10.3553476
  60.2746811 179.5820160   9.8377209  60.6322098 177.4778595   9.7969894
  59.9739952 176.8794403  10.4268723  60.0502319 177.4826813   8.3591032
  60.5611191 178.2908478   7.8356891  60.3367081 176.2596283   7.5309825
  59.9408112 175.3912048   8.0574684  59.7955246 176.2404938   6.5850139
  61.4190674 176.1975250   7.4181180  58.5597153 177.7415466   8.4378290
  58.0107346 177.0884399   7.7594614  58.1524162 177.5273285   9.4259195
  58.1675301 179.2039032   8.1340408  58.5013428 179.3837891   7.1121235
  57.0787468 179.2462769   8.1633492  58.7175331 179.8972321   8.7703352
  61.9804001 176.8640747   9.8312740  62.1802864 175.8436432  10.5033665
  62.9504204 177.4590302   9.1447535  62.6976547 178.2918091   8.6322346
  64.2420807 176.8137207   8.9304438  64.0641632 175.7646027   8.6941738
  64.9822311 177.4857941   7.7468448  65.0653229 178.5108948   8.1079302
  65.9975815 177.1476593   7.5398879  64.1414337 177.6811218   6.4304647
  63.5736732 178.7692871   6.2315478  63.9620361 176.7294159   5.6200061
  65.1643066 176.8771362  10.1488791  65.9261703 175.9664917  10.4461622
  65.0206833 177.8739014  11.0250597  64.4728928 178.6639252  10.7153883
  65.5923233 177.9194794  12.3283844  66.6665726 177.7756958  12.2125072
  65.2827682 179.2478638  12.9433203  65.6030502 179.9860687  12.2080784
  64.2103500 179.4361572  12.9939041  65.9420624 179.4675293  14.2825470
  65.3899002 178.7916260  15.3711576  64.4514084 178.2597351  15.3189802
  65.9486465 178.9984741  16.6474876  65.5898132 178.4884033  17.5292301
  67.0736542 179.8300629  16.8477764  67.5188446 180.0222473  17.8128014
  67.6852875 180.4274139  15.6968317  68.6141357 180.9362793  15.9082298
  67.1522064 180.1842346  14.4482470  67.6288757 180.5372009  13.5456944
  65.1054306 176.7510223  13.2533493  65.9165573 176.0713348  13.8202152
  63.7577744 176.5253143  13.3927069  63.1307259 177.0881653  12.8358202
  63.2710915 175.5016785  14.2469406  63.7175827 175.5092621  15.2412710
  61.7598763 175.7002411  14.5534925  61.3655586 174.9120483  15.1948748
  61.5994606 176.6615448  15.0416079  61.0059090 175.6783752  13.3208952
  61.0747337 176.5187988  12.8620319  63.6919174 174.1354218  13.6436749
  64.1418076 173.2040710  14.3599138  63.6865540 174.0298920  12.2579184
  63.2045670 174.7416077  11.7275829  64.1486740 172.7761841  11.5821457
  63.5446167 172.0065308  12.0626163  63.7443314 172.7886200  10.1368885
  63.9167252 173.8111420   9.8010178  64.4241104 172.1315002   9.5944738
  62.4042816 172.3036957   9.7422991  61.8359604 171.1254272  10.1825695
  62.4300423 170.5160065  10.8474503  60.5778885 170.6826019   9.7370510
  60.1852913 169.7413483  10.0924673  59.9843636 171.4376221   8.7046223
  58.6921120 171.1880798   8.3365612  58.5307503 171.6449585   7.5078158
  60.5328217 172.6264038   8.1819954  60.0849724 173.1308136   7.3385482
  61.7749825 173.0262146   8.7296553  62.3034668 173.8519135   8.2765369
  65.6394958 172.4769135  11.8519306  65.9566345 171.4066925  12.3435411
  66.5365982 173.4795990  11.8569040  66.1755219 174.3622284  11.5241852
  67.8824158 173.4550934  12.3945503  68.5197449 172.7099457  11.9184275
  68.5602798 174.8251038  12.1441965  68.6358337 175.0950928  11.0908689
  67.8952103 175.5637512  12.5916195  69.9621201 174.9196930  12.7625570
  70.2037735 175.9814301  12.7135286  69.9754868 174.5801544  13.7982368
  71.1108627 174.1958923  12.1012335  71.9863205 174.6620636  12.5532751
  71.1309357 173.1282349  12.3198891  71.1221771 174.4500427  10.6286049
  70.4033051 173.9763641  10.1004448  71.8599472 175.3830719   9.9784508
  72.6950531 176.2639008  10.5818052  72.7817535 176.2672272  11.5880718
  73.3840561 176.7042847   9.9889784  71.7236938 175.5457611   8.6999454
  71.2197266 174.8830719   8.1281385  72.3503189 176.1991119   8.2520857
  67.9231567 172.9915771  13.8296480  68.5896759 172.0130768  14.1159077
  67.2606659 173.6500244  14.7622890  66.5452347 174.2720947  14.4140244
  67.3631668 173.2691193  16.2220516  68.4124985 173.2320404  16.5146713
  66.7123489 174.2593079  17.1134052  65.6744843 174.4863281  16.8696804
  66.7269974 173.7817993  18.5870438  67.7748947 173.5782623  18.8074894
  66.3401184 174.5919037  19.2052345  66.2175369 172.8399200  18.7905579
  67.3979950 175.6040649  17.0412235  67.0657043 176.0564423  16.1068554
  67.1901932 176.2093811  17.9235611  68.4823380 175.5098114  16.9827061
  66.7581711 171.8466034  16.4782619  67.3104324 171.0618591  17.3045444
  65.6135864 171.4840393  15.8125992  65.2179260 172.2214203  15.2470808
  64.8847656 170.2716675  15.9581308  64.4391861 170.1795959  16.9486275
  63.6199570 170.2657776  15.0918589  63.8613434 170.3813629  14.0352259
  63.0318031 169.3499146  15.1498804  63.0583649 171.1499329  15.3935165
  65.8664627 169.1339569  15.6048937  65.8119049 168.0584106  16.2303829
  66.7824249 169.2639923  14.6306744  66.7646637 170.1772766  14.1997538
  67.8114853 168.3217163  14.2325659  67.3000565 167.3948364  13.9728775
  68.5296326 168.9402008  12.9614553  68.9958420 169.9124756  13.1209545
  69.2619095 168.2082520  12.6206923  67.8055954 169.0514984  12.1543045
  68.7083664 168.1143341  15.4132986  68.9452057 167.0306091  15.9000835
  69.3699112 169.1612396  15.9446096  69.0682449 170.0857544  15.6718588
  70.6310806 169.0679321  16.8314838  71.2788162 168.2561951  16.5004005
  71.4785995 170.3302155  16.6131382  72.4703979 170.3462524  17.0649986
  71.6070557 170.5008240  15.5442648  70.5935974 171.7842102  17.2729092
  71.5560379 172.6585388  16.9660568  70.3538666 168.8499908  18.2896595
  71.3050003 168.6741180  19.0912209  69.0739288 168.7541809  18.7207680
  68.3632202 168.8313293  18.0072937  68.6725693 168.5811005  20.0953407
  69.3696671 169.2225952  20.6344547  67.2266388 169.0031586  20.4164181
  66.6403198 168.6536713  19.5666008  66.8202972 168.5054779  21.2969341
  67.0553055 170.5211639  20.6533051  67.5239868 171.0288544  19.8102818
  65.5771637 170.7592163  20.7848244  65.1519699 170.2500916  21.6497536
  65.5354385 171.8169403  21.0447807  65.1214447 170.5532532  19.8163242
  67.7762756 170.9791870  21.9406471  68.8550110 170.9024048  21.8044930
  67.5279770 172.0158081  22.1683865  67.3768768 170.4035187  22.7756271
  68.9324646 167.0797119  20.5336704  68.4307632 166.1162872  19.8652782
  69.6346359 166.7639618  21.6481915  70.4587631 167.7062988  22.4629326
  69.9589081 168.5460663  22.9456882  71.1415482 168.1857147  21.7614613
  71.2527695 166.8456421  23.4779015  70.6455307 166.8007050  24.3819714
  72.2277527 167.2719421  23.7140961  71.2282791 165.4327240  22.8729725
  71.3544693 164.6630554  23.6344051  72.0149612 165.3800964  22.1203270
  69.9098511 165.3887329  22.0800858  70.0513153 164.7333374  21.2206974
  68.8810806 164.7321930  22.9313812  68.8130875 164.8167419  24.1316090
  67.8793488 164.1000214  22.2943954  67.8551178 164.0933838  21.2847080
  66.6317444 163.4958801  22.8868904  66.7821808 163.2776642  23.9441757
  65.4456406 164.4562225  22.7174377  64.4809418 163.9499207  22.6841869
  65.2945099 165.4574890  23.9921722  66.1705170 166.1046143  24.0361557
  64.3034515 165.9081726  23.9393501  65.4802933 164.8775177  24.8961811
  65.5037308 165.3748474  21.4384975  66.1859741 166.1920319  21.6727200
  65.9630585 164.7601166  20.6643963  64.1397552 165.8718414  21.0018291
  63.7901077 166.6126404  21.7208862  64.3948822 166.3579102  20.0601578
  63.4453812 165.0572357  20.7959709  66.2778015 162.1589050  22.2401981
  66.7737274 161.8438721  21.1446762  65.5537262 161.2936401  22.9239197
  65.1833954 161.5482788  23.8284111  65.0954590 159.9926910  22.2651901
  65.9550400 159.4840851  21.8286686  64.6198120 159.1034393  23.4536438
  64.4056854 158.0897522  23.1149807  65.4219818 158.9766693  24.1806736
  63.3451996 159.6138916  24.1317902  63.3363991 160.8186340  24.5535297
  62.4152565 158.7732544  24.3208847  64.0227432 160.0402222  21.2288647
  63.4800797 161.0761261  20.9112110  63.9537430 158.9424591  20.5081463
  64.3984299 158.0866852  20.8081894  63.2845116 158.9289856  19.1709061
  63.5657043 159.8167419  18.6044102  63.5731010 157.7435150  18.2168541
  63.3024063 156.8171082  18.7234097  63.1422691 157.7852631  17.2164841
  65.0757675 157.6198120  18.0199203  65.6513596 158.5474701  17.4129677
  65.7959747 156.6469116  18.4094276  61.7345505 158.9805756  19.3135319
  61.0589485 159.4541473  18.4136066  61.1819687 158.5207062  20.4522686
  61.8024406 158.1232300  21.1430149  59.7298317 158.6374054  20.7427845
  59.2468834 158.3213043  19.8181553  59.3344650 157.7101593  21.9636536
  59.7409630 158.0523682  22.9153671  58.2557411 157.7729187  22.1068974
  59.5257645 156.6519318  21.7857761  59.3175697 160.0779572  20.9135857
  58.1875610 160.4100189  20.4546852  60.1826973 160.9703369  21.4201241
  61.0996170 160.6214752  21.6602631  60.1155434 162.4300995  21.5036182
  59.0781937 162.6953583  21.7076931  60.9550896 162.9493713  22.6488667
  60.5655060 162.5167847  23.5703831  61.9989128 162.6617432  22.5231552
  60.9225273 164.4605713  22.8977585  61.4795952 164.9502411  22.0990067
  59.5347023 165.0503082  23.0350094  58.9345207 164.5072021  23.7650204
  59.6708603 166.0840302  23.3527946  59.0577545 165.0821838  22.0554161
  61.7337685 164.6958618  24.1603317  62.6630974 164.1266327  24.1813564
  62.0158730 165.7485657  24.1424007  61.1404266 164.5271454  25.0589848
  60.5210114 163.0998535  20.1668606  59.8001328 164.0850372  19.8223991
  61.5124779 162.7191467  19.4199142  62.0615082 161.9954376  19.8614025
  61.7799606 163.3401184  18.0807323  61.7222443 164.4285889  18.0795822
  63.1541252 162.9085999  17.5216999  63.1726990 161.8206177  17.5852947
  63.2821541 163.1950684  16.4778404  64.3039093 163.5687408  18.3656254
  64.4254532 164.6371918  18.1875267  64.0429306 163.4367523  19.4156590
  65.5954514 162.8841095  18.0986404  66.2982635 163.1497040  18.8883286
  65.3831024 161.8216705  18.2179012  66.2640457 163.1601105  16.7573090
  66.2987137 162.3506927  16.1542034  67.0262375 164.1800079  16.4394207
  67.2391434 165.1624756  17.2327271  66.9120560 165.1472626  18.1881771
  67.8226089 165.9203033  16.9081211  67.6731033 164.2243652  15.3310709
  67.5368500 163.5048523  14.6354780  68.2450867 165.0175934  15.0786333
  60.6438141 162.9644012  17.0739784  60.4812508 163.7217407  16.1162834
  59.7373009 161.9590607  17.3513737  60.0417023 161.2899628  18.0440006
  58.4411545 161.6812286  16.6343155  58.6588860 161.8427124  15.5785580
  58.0030823 160.2021027  16.8539009  57.9872017 160.0139618  17.9274254
  56.5444221 159.9649963  16.3704872  56.3632317 160.3096924  15.3524227
  56.3740578 158.8885651  16.3514423  55.8560219 160.4338684  17.0736008
  58.9342957 159.1924744  16.1014442  58.5870476 159.0798340  15.0743942
  59.9758148 159.5082703  16.0413284  58.8651428 157.7517853  16.6801796
  57.8499489 157.3599701  16.6171837  59.4370308 157.1153870  16.0048714
  59.3526993 157.7065125  17.6540108  57.4261131 162.7297821  17.0317440
  56.8208122 163.2740021  16.1132107  57.3462982 163.0391693  18.3658237
  58.0205956 162.5782928  18.9599781  56.4408073 164.0347748  18.9785995
  55.4664345 163.6863556  18.6361046  56.4838409 164.1576691  20.5164242
  57.4593544 164.4766388  20.8834858  55.8037949 164.9476013  20.8352451
  56.0096664 162.9494781  21.2957134  56.9018364 162.3419342  21.4474945
  55.6392136 163.2793121  22.2663212  54.9606743 162.0080566  20.6076336
  53.8865128 162.3893585  20.1666946  55.2452469 160.7084656  20.6813793
  54.5703011 160.0214386  20.3771381  56.1896362 160.4190369  20.8922462
  56.7667542 165.4204407  18.3534279  55.9787979 166.0966339  17.7874489
  58.0766182 165.8712158  18.3747540  58.7423477 165.3814087  18.9552650
  58.5595818 167.0028992  17.6960621  58.0383415 167.8719330  18.0975494
  60.0179520 167.1810608  17.9680061  60.3192139 166.8576813  18.9643822
  60.6176529 166.6472321  17.2307968  60.5870972 168.6039734  17.8524780
  60.3490257 168.9342499  16.8413677  59.9205093 169.5294037  18.8423424
  60.1121712 169.1510925  19.8464622  60.2614899 170.5593109  18.7369976
  58.8524361 169.6462097  18.6588306  62.0854721 168.5817261  18.1368809
  62.7014198 168.1010132  17.3768597  62.4138107 169.6017456  18.3365021
  62.3407173 168.1369934  19.0987396  58.3391876 166.9819641  16.2027283
  57.9541435 167.9528961  15.6022053  58.7464790 165.9222260  15.4500198
  59.0752831 165.1035919  15.9417791  58.4394264 165.7884521  14.0030165
  58.9485054 166.6395111  13.5506392  59.0209846 164.4764709  13.4885330
  60.0701027 164.4207458  13.7789383  58.5022202 163.6472626  13.9695826
  58.9603996 164.1657257  11.9768209  57.9963341 164.3669891  11.5097294
  59.9603348 165.0841980  11.2822847  60.9732208 164.8439636  11.6054697
  59.9733429 164.9866180  10.1967402  59.6845970 166.1303864  11.4148598
  59.3603554 162.7148743  11.6066580  58.5907555 162.0850525  12.0529089
  59.3771553 162.5472412  10.5297546  60.3061256 162.5400391  12.1195450
  56.9650993 165.9187469  13.6581068  56.6338158 166.6419983  12.7045279
  56.0344963 165.3274078  14.4347019  56.3729057 164.7766113  15.2107124
  54.5342445 165.3916016  14.3299561  54.1737328 164.9259186  13.4127436
  54.0185814 164.5684662  15.4763603  54.7462769 164.4804688  16.2830906
  53.1987000 165.0732422  15.9873419  53.5119286 163.1569366  15.1675997
  52.7012558 163.1977844  14.4401083  54.3134537 162.6423035  14.6376867
  52.9874382 162.4448395  16.4464645  53.8406410 162.3650055  17.1200924
  52.2390251 163.0212250  16.9902859  52.3028297 161.1755066  15.9631519
  51.6327477 161.4709930  15.1558275  53.0545807 160.5806427  15.4443903
  51.6144295 160.3873291  16.9975147  50.7797661 160.8940277  17.2557602
  51.3314819 159.5170898  16.5700417  52.0888138 160.2992859  17.8848190
  53.9246445 166.7981567  14.4186392  52.8035355 167.0137329  14.0056372
  54.5985069 167.7428894  15.1144629  55.5079193 167.4949646  15.4772406
  54.1418762 169.1472473  15.2414532  53.1977730 169.2179108  15.7816162
  55.2392006 169.8411865  16.1027431  56.2151184 169.5685730  15.7010374
  55.2882118 171.3952332  16.0194988  54.3740349 171.9046478  16.3242550
  56.0948830 171.7186737  16.6773491  55.4996262 171.7033081  14.9955397
  55.0536499 169.4199829  17.5952320  54.8529320 168.3494873  17.5519047
  55.9349670 169.6977692  18.1733437  53.7909889 170.0504608  18.2523556
  52.8837624 169.9942932  17.6507931  53.5572281 169.4910278  19.1581650
  53.9895782 171.0674133  18.5907173  53.9803772 169.8753662  13.8850365
  54.5779762 169.5030823  12.8560581  52.9224243 170.7019958  13.8100233
  52.4073563 170.9060211  14.6545210  52.3248444 171.2302246  12.6147223
  52.5035172 170.5185242  11.8086977  51.2755623 171.3872986  12.8645973
  52.9756050 172.4914398  12.2425594  53.2508659 172.8315735  11.1164331
  53.3608437 173.3215485  13.2902699  53.1604767 173.0002594  14.2266064
  53.9040451 174.6714020  13.0698118  54.0246086 174.7594604  11.9900846
  52.7842140 175.6535492  13.5230227  51.8430519 175.4011688  13.0345364
  52.5606079 175.5087891  14.5799732  52.9520493 177.0387878  13.2281551
  52.2678642 177.3138275  12.6134672  55.2852592 174.9883118  13.7565918
  55.5503883 174.5042877  14.8455725  56.0348434 175.9138947  13.1865072
  55.7312393 176.3435516  12.3243446  57.2896194 176.3938599  13.8066454
  57.8673439 175.4709015  13.8563423  57.9703293 177.3904419  12.8597965
  57.2084846 178.1022339  12.5419044  58.7812004 177.8337097  13.4378138
  58.3150063 176.8823853  11.9591398  57.0850792 177.1062317  15.2302017
  57.9528694 176.9585114  16.0591469  55.9722786 177.8190308  15.3871384
  55.3093796 177.7822266  14.6260157  55.5713730 178.3659210  16.6941051
  56.3460960 178.9825439  17.1498394  54.2460251 179.1539459  16.5380116
  53.5984116 178.4707489  15.9885359  53.5484619 179.3396759  17.9376392
  54.1289711 180.0282288  18.5516644  52.5762482 179.8046570  17.7742443
  53.3773308 178.4100189  18.4803658  54.5702477 180.4537201  15.7506762
  54.7187500 181.2381744  16.4927559  55.4995308 180.2922668  15.2043438
  53.4564781 180.8548737  14.8226728  52.5314026 180.9992218  15.3807917
  53.7965431 181.7705231  14.3389235  53.3392029 180.0047913  14.1505709
  55.3610268 177.2873840  17.7557411  55.8413925 177.4223785  18.8568993
  54.6477699 176.2186890  17.4517345  54.2349548 176.1731415  16.5310783
  54.5172920 175.0723114  18.2993011  54.0951881 175.3101654  19.2757034
  53.5433540 174.1714935  17.5602207  53.8546715 174.3031921  16.5239582
  53.6324425 173.1227570  17.8436584  51.9695511 174.4698334  17.5867710
  51.6344528 174.2673340  18.6040230  51.8046150 175.5300751  17.3949680
  51.2261734 173.6167908  16.5678062  51.8471794 172.9239349  15.7491531
  49.9101334 173.5864105  16.5938492  49.3912659 173.0916290  15.8824549
  49.5014954 174.3152618  17.1611958  55.8383789 174.2834320  18.4136505
  56.0821953 173.8019714  19.4647694  56.6984673 174.0976715  17.3919678
  56.5725899 174.5434570  16.4944496  57.9962120 173.5102081  17.5356312
  57.8697281 172.5083008  17.9458637  58.4902267 173.1728363  16.0877132
  57.6109276 173.0258026  15.4605656  58.9959488 174.0658264  15.7204227
  59.4328995 171.8994446  15.9406910  60.4106369 172.1820984  16.3308659
  58.9655647 171.0845184  16.4935017  59.4828796 171.4453583  14.4772005
  60.2426872 170.6651001  14.4323950  58.5219841 170.9825134  14.2523375
  59.8438339 172.5490265  13.5673513  60.5675774 173.1876373  13.8648052
  59.2128639 172.8222351  12.4266663  58.2827797 172.0216980  11.8510361
  58.1158791 171.0929108  12.2110491  57.9356270 172.2916412  10.9418001
  59.5591888 173.8754578  11.8311882  60.1325798 174.5833435  12.2673464
  59.0261726 174.0566559  10.9926395  58.9110603 174.2532959  18.4320316
  59.4603653 173.6993103  19.3570213  59.0394440 175.5963135  18.2772903
  58.5603600 175.9782715  17.4743595  59.7009544 176.5254669  19.1795502
  60.7357216 176.1918793  19.2574787  59.5845108 177.9263000  18.5400791
  58.5440445 178.0341644  18.2336521  59.8453445 178.7004852  19.2616844
  60.3578987 178.3104095  17.2297516  60.2027626 177.5593567  16.4551811
  59.9162178 179.7210083  16.8132076  60.3123398 180.4653015  17.5040150
  60.1205559 179.8389130  15.7490406  58.8292160 179.7830658  16.7614365
  61.8944359 178.3755951  17.4001350  62.2357407 177.3491974  17.5347347
  62.3585548 178.7621460  16.4927959  62.1847572 178.9884186  18.2535076
  59.1804504 176.4098358  20.6081676  60.0358200 176.3713379  21.5256233
  57.8355675 176.2188873  20.8178806  57.2032547 176.3015900  20.0346584
  57.2526436 176.0350647  22.1979370  57.6486015 176.7669678  22.9019566
  55.7295532 176.1715088  22.0657082  55.4289894 175.6770630  21.1419754
  55.2009354 175.6573944  22.8684196  55.3405037 177.6150360  22.0069809
  55.7523308 178.0479126  22.9186363  55.7106819 178.1647034  21.1415653
  53.8222198 177.8013763  22.1173553  53.5707397 178.8603363  22.1762543
  53.4363251 177.4502869  21.1603184  53.1901398 177.0927887  23.2486687
  52.8264847 176.1688538  23.0637741  52.9524841 177.5257263  24.4770775
  53.3460083 178.7329102  24.8710175  53.7768707 179.3574371  24.2043629
  52.9865074 179.1330109  25.7258797  52.4171295 176.6721954  25.3379345
  52.1985016 175.7236176  25.0686550  52.6823578 176.8812103  26.2898102
  57.6475868 174.6951599  22.7854958  58.0904465 174.6121063  23.9846992
  57.5825844 173.6561584  21.9324055  57.2028084 173.7973328  21.0072346
  58.1112671 172.2933502  22.2850647  57.5049324 171.9303284  23.1149254
  57.8415146 171.3162079  21.1362152  56.8458786 171.4493408  20.7130318
  58.5626526 171.5341949  20.3484669  58.2063637 169.6356049  21.6910667
  56.9340401 169.2384338  21.5996742  59.5735817 172.3657532  22.6777802
  59.9418869 171.8908844  23.7563362  60.3811531 172.9580078  21.8303757
  59.9750481 173.2206116  20.9436855  61.8021469 173.0967560  22.1022396
  62.1278496 172.0659790  22.2419605  62.5521278 173.8382874  20.9333782
  61.9149780 174.6672668  20.6252613  63.4704170 174.1579742  21.4259701
  62.7893372 173.1145630  19.6283150  63.7580452 172.6174774  19.6794624
  62.0186653 172.3603210  19.4692516  62.7857437 173.9992371  18.3877277
  63.1408310 175.2193909  18.4285049  62.4658127 173.4392090  17.2928085
  62.0355873 173.8288422  23.4286366  62.8444099 173.3815918  24.2652493
  61.2835960 174.9175873  23.6918049  60.6683388 175.2980194  22.9869404
  61.5131645 175.6877289  24.9217186  62.5768166 175.9250946  24.9017010
  60.8049469 177.0848846  24.8205547  59.8104172 176.9627686  24.3914871
  60.6996803 177.4817047  25.8302879  61.6544113 178.0498657  23.9634476
  62.0509758 177.4591980  23.1376534  60.9612198 179.3418121  23.5293503
  60.6944580 179.9211731  24.4132462  61.6009407 179.8367767  22.7986774
  60.1593361 179.0486145  22.8517723  62.8997841 178.5469055  24.6392288
  63.4386635 177.6944885  25.0528831  63.5688400 178.9785156  23.8947983
  62.6516495 179.2920685  25.3950500  61.1944847 174.9845276  26.2292671
  61.7858467 175.2505035  27.2664928  60.2447243 174.0033264  26.1633549
  59.7552567 173.8917694  25.2869568  59.8838158 173.0928497  27.2514362
  59.6491776 173.5926056  28.1912727  58.5133438 172.4659271  26.8874435
  57.7958717 173.2864838  26.8915329  58.5343323 171.9595947  25.9224110
  57.9205742 171.3971710  27.7913837  58.0655174 171.4200134  29.0186825
  57.2128067 170.5579529  27.2637691  60.9698563 172.0049896  27.5370483
  61.3826904 171.8518372  28.6475639  61.4828186 171.3451385  26.4827671
  61.2456779 171.7437592  25.5855656  62.6755219 170.4954987  26.5705395
  62.3933907 169.7740936  27.3374119  63.0220985 169.8901672  25.1793003
  63.0447960 170.7308960  24.4859352  64.3886871 169.1930695  25.1471920
  64.6595154 168.6463470  26.0504379  64.4075089 168.4383698  24.3609562
  65.1670380 169.9432068  25.0073509  61.8979721 168.8629913  24.7737732
  61.9828987 167.9173889  25.3092346  60.9136963 169.2251740  25.0706387
  61.7555656 168.5991669  23.2490711  62.6396255 168.1272125  22.8203697
  60.9128647 167.9653015  22.9730701  61.6500740 169.5213623  22.6776390
  63.8576050 171.2787476  27.1736183  64.4983978 170.7109070  28.1115284
  64.2356415 172.4939575  26.7431087  63.7232018 172.8351593  25.9424286
  65.4432983 173.2075500  27.1639061  66.2679291 172.5060120  27.0376511
  65.6689453 174.4915924  26.3553505  64.7889709 175.1279144  26.2612858
  66.4455032 175.0953369  26.8249855  66.1380310 174.1431274  24.8857536
  66.7916946 173.2732544  24.8214607  65.1907043 173.8833771  24.4133167
  66.8405533 175.6177521  24.0736389  67.8435059 174.9675140  22.7783260
  67.2227173 174.4880829  22.0214443  68.4268799 175.7760773  22.3378563
  68.4555511 174.1953735  23.2444859  65.3852844 173.6752930  28.6220074
  66.4473648 173.8332825  29.1775990  64.2519531 173.8056030  29.3038177
  63.3912849 173.6157990  28.8105354  64.1971893 174.0902557  30.7595959
  64.9979706 174.8036499  30.9542999  62.7938614 174.6887360  31.0912991
  61.9732857 174.1007996  30.6800785  62.8031006 174.6223602  32.1792412
  62.5992126 176.1647339  30.7567482  63.4802895 176.9321899  30.4567318
  61.4465561 176.6881104  30.9589920  61.4866142 177.6950989  30.8921871
  60.7413750 176.1372375  31.4273434  64.4749603 172.8738708  31.6661682
  64.9064178 173.0432587  32.8411636  64.1711731 171.6339111  31.2002831
  63.6541862 171.6213989  30.3327198  63.9506340 170.4474182  32.0462723
  64.0059280 170.7582855  33.0895348  62.5066872 169.8846893  31.7819729
  62.3745193 169.8533020  30.7004700  62.3700066 168.8836212  32.1909714
  61.4241104 170.7973175  32.4229240  61.3100128 170.4759216  33.4581947
  61.6863365 171.8524933  32.3456802  60.0573235 170.6817169  31.7372971
  60.0536919 171.2639313  30.8158226  59.8640022 169.6359558  31.4983025
  58.9435692 171.2656555  32.5673103  58.7848892 170.7816315  33.5309753
  59.1345024 172.3242035  32.7437172  57.6732559 171.1849365  31.7629185
  57.2359886 170.2760010  31.8153038  56.9413261 171.7769012  32.1289330
  57.8054504 171.5216675  30.8199215  64.9853668 169.3242035  31.7679672
  65.2536392 168.5180206  32.6407280  65.7066193 169.3829346  30.6696415
  65.4064255 170.0587921  29.9817543  66.9422226 168.6567078  30.3808155
  66.8932571 167.6243896  30.7272568  67.2540817 168.7364655  28.8934135
  66.3954773 168.3363495  28.3541412  67.5578613 169.7526703  28.6421700
  68.6866684 167.7291870  28.4928303  68.4796753 167.8500519  27.1785107
  68.1584625 169.1965027  31.2201500  68.4993057 170.3583374  31.2161846
  68.8896866 168.3016052  31.9214344  68.7390594 167.3140564  31.7725677
  70.0519791 168.7061005  32.7630501  70.4976501 169.5957489  32.3180695
  69.5903397 169.0543823  34.2273636  70.4913406 169.0531921  34.8407936
  68.7560349 170.3519135  34.3586197  67.8425903 170.2347870  33.7755203
  68.5384369 170.4091949  35.4251404  69.3842239 171.2135773  34.1327553
  68.8254242 167.9955750  34.6738014  68.1079559 168.3188782  35.2236404
  71.1564789 167.6858978  32.7264786  72.0992432 167.7240448  31.9204884
  70.9584885 166.5086517  33.4307404  70.1522141 166.5283356  34.0387115
  71.8247604 165.3246460  33.3715286  72.8661041 165.6455383  33.3987007
  71.6769485 164.4456940  34.5904236  71.9125977 165.0593719  35.4598923
  70.6927795 163.9827423  34.6624832  72.6595688 163.4048615  34.4751167
  72.6581497 162.9429626  35.3167000  71.6040497 164.5058746  32.0733032
  70.4733963 164.4819641  31.5734844  72.6366501 163.8370209  31.5322628
  73.5227737 163.9051056  32.0120926  72.5498886 162.9317322  30.3496208
  71.4878311 162.7415771  30.1947823  73.1006775 163.7170715  29.1620846
  74.0856400 163.9980774  29.5348835  73.2523956 163.0463409  28.3163776
  72.2370148 164.8968811  28.5517273  72.0218582 165.7155151  29.2385044
  72.9746323 165.5485229  27.4114609  73.1577759 164.9746704  26.5030327
  72.5650177 166.5243683  27.1506157  74.0023575 165.7354736  27.7227993
  70.8452301 164.4556885  27.9280586  70.2518005 163.9728088  28.7044411
  70.3944702 165.3319550  27.4621429  71.0121384 163.7748108  27.0934124
  73.2438202 161.6156158  30.6142426  74.4564819 161.4212799  30.6308708
  72.3795166 160.6338806  30.8262825  71.4051132 160.8535309  30.6766319
  72.8273087 159.3201904  31.3964691  73.7800293 159.4573975  31.9079361
  71.8641052 158.8365021  32.4812660  70.8831635 158.7681274  32.0109711
  72.0954132 157.8174896  32.7914848  71.7170944 159.8768463  33.9404182
  70.8757935 159.0892792  34.6163216  72.9879684 158.2880554  30.2353840
  72.6199188 158.6132507  29.0930080  73.5613632 157.1128387  30.4829292
  73.7626801 156.9158173  31.4528599  73.4801712 156.0173950  29.5253429
  73.5875015 156.4530487  28.5319691  74.6758652 155.1261444  29.7836151
  75.5430450 155.7038422  29.4636593  74.8030090 155.0280304  30.8617191
  74.5436859 153.5563660  28.8368702  75.8042068 153.5098877  28.3966293
  72.1088867 155.2898712  29.6275806  71.6292343 155.0539856  30.7236500
  71.5134506 154.8987732  28.4782238  71.9458542 155.2274475  27.6266956
  70.2620468 154.1795044  28.4104633  69.5311813 154.7468872  28.9866676
  69.7916565 154.1634064  26.9386368  69.7244339 155.2022400  26.6155128
  70.6328201 153.7563782  26.3775043  68.4841003 153.5446167  26.6587601
  68.4978256 152.5298615  27.0565109  67.7023468 154.1458740  27.1229305
  68.2005463 153.3683929  25.1313839  69.0997162 153.0162659  24.6258144
  67.5502014 152.4971161  25.0537167  67.6827621 154.6855316  24.4507618
  66.9203186 155.0547180  25.1366711  68.5332413 155.3672638  24.4452438
  67.2670593 154.4487152  23.0187244  66.4283905 153.8931885  22.9285927
  66.9864273 155.3139648  22.5797539  67.9709320 154.0050812  22.4461346
  70.2838821 152.7631531  28.9060192  69.3240433 152.3245087  29.5907326
  71.4166641 151.9656525  28.7199841  72.2360077 152.3144684  28.2434292
  71.3761292 150.6494904  29.3050156  70.4193344 150.2214050  29.0060482
  72.3855515 149.7298279  28.5416336  72.0451050 149.6156311  27.5124779
  73.3585281 150.2085114  28.4308834  72.4822922 148.3295746  29.1847382
  72.8423691 148.4623260  30.2049446  71.4912491 147.8818970  29.2590313
  73.2803345 147.3305969  28.3114529  73.9991760 147.6445007  27.3363762
  73.1541824 146.0602417  28.6364746  73.6262817 145.2610168  28.2384033
  72.5950012 145.8379822  29.4476528  71.3904648 150.5523834  30.8453484
  70.6424103 149.7667694  31.4523125  72.0131073 151.5062103  31.5174980
  72.5805054 152.1272278  30.9584808  71.9297180 151.7322388  32.9902954
  71.8643799 150.7760162  33.5094070  73.2371063 152.4632416  33.4029922
  73.2863846 153.4709167  32.9903374  73.0471420 152.6505585  34.4598427
  74.8623505 151.5948792  33.1788368  75.6844635 152.2742615  33.9834900
  70.6367645 152.4976044  33.3837700  70.1399536 152.3095398  34.5285835
  70.2197418 153.4386902  32.5401192  70.8045349 153.5546722  31.7248516
  69.2581406 154.5572968  32.8449440  69.1271210 155.1347198  31.9297848
  67.8392639 153.9747620  33.0940514  67.8934326 153.3702698  33.9994545
  67.1489410 154.8140106  33.1789780  67.4268723 153.1300201  31.9312248
  67.6917877 153.7046204  31.0436649  67.9887543 152.1961975  31.9505825
  65.9415054 152.8098297  31.8647060  65.0523224 153.1886292  32.6331329
  65.5699463 151.9447021  30.9222717  64.6228943 151.5973969  30.8715076
  66.2741241 151.6759796  30.2499390  69.7165375 155.5448151  33.8999405
  69.4633865 156.7013855  33.6653366  70.3725052 155.0924683  34.9032097
  70.3378830 154.0923462  35.0398750  70.6898346 155.9398956  36.0589218
  70.0393295 156.8143768  36.0438423  70.2383804 155.0927124  37.2826996
  70.2659760 155.7548676  38.1480789  69.1797562 154.8359833  37.2438583
  71.1016235 153.8694763  37.6156349  71.9654083 153.4286499  36.8068428
  70.9065323 153.2673798  38.6565132  72.1186676 156.4863892  36.2496529
  72.4330750 157.3543854  37.0513840  73.0893173 155.9215240  35.5700302
  72.8359604 155.0795441  35.0730705  74.4854431 156.3816833  35.5012856
  74.8218536 156.4910583  36.5322876  75.3307037 155.3035889  34.8226166
  74.9790039 155.3932800  33.7948151  76.8441696 155.4253998  34.9379616
  77.0628662 155.0301514  35.9299583  77.3160934 154.7335358  34.2403069
  77.1675415 156.4581299  34.8076668  75.1148453 153.9776917  35.2680740
  75.2201385 153.9579315  36.2220764  74.6629410 157.6993103  34.7699661
  74.4649048 157.8002930  33.5555000  75.1610413 158.7351532  35.4598923
  75.3082428 158.5357666  36.4390106  75.5747299 160.0568848  34.8948936
  74.7059326 160.4409027  34.3602829  75.8728256 160.9875183  36.0221825
  75.0187149 160.9739990  36.6992416  76.7721634 160.5427399  36.4481697
  76.1351547 162.3929443  35.4520607  76.8834763 162.3278198  34.6622047
  75.2806702 162.8240051  34.9303818  76.7643204 163.3070374  36.4780846
  77.1999283 162.8357239  37.5575066  76.7894211 164.5395355  36.1996078
  76.7580109 159.9046021  33.8749542  77.8654938 159.5244293  34.2854385
  76.5475693 160.2342834  32.5544090  75.6143112 160.5303955  32.3065338
  77.6185226 160.3014069  31.5850620  78.5366058 159.8289032  31.9343014
  77.2077637 159.5067291  30.3506470  76.1192856 159.4772644  30.3010578
  77.7248077 160.2199402  29.0474777  78.7993011 160.2821198  29.2198219
  77.6375580 159.5946045  28.1589756  77.3111038 161.2010040  28.8140888
  77.7073593 158.0469055  30.3212318  77.2537003 157.6063385  29.4334240
  78.7812500 157.9014893  30.2041359  77.2708130 157.1846924  31.5062675
  76.1889038 157.1121368  31.6171474  77.8421402 156.2566376  31.4861908
  77.5041885 157.7034454  32.4360695  78.0091248 161.7535553  31.3251705
  79.1844177 162.0718231  31.3197556  77.0678177 162.5988312  31.0169182
  76.1053391 162.2954559  30.9754944  77.3013916 164.0349121  30.8355255
  78.1116714 164.2557678  31.5303459  77.7444534 164.2611694  29.3606663
  78.5073700 163.5623627  29.0175343  76.5414200 164.1198425  28.3210449
  75.9169998 165.0117798  28.3724060  76.8615723 164.0239258  27.2835484
  75.9505615 163.2396088  28.5744190  78.3037338 165.5671844  29.1743450
  79.2625275 165.5825653  29.2199650  76.1534729 164.9426575  31.3177395
  75.2365494 164.4935608  32.0323181  76.2230453 166.2285919  30.9659462
  76.9337540 166.5651093  30.3321056  75.2619095 167.2403107  31.4453373
  74.2812042 166.7660980  31.4073544  75.6555481 167.7533722  32.8047066
  75.6510468 166.9462433  33.5372581  76.9907913 168.4257812  32.8799171
  76.9424438 169.3287048  32.2712288  77.2318420 168.7515869  33.8917694
  77.7580719 167.7419586  32.5169182  74.7341766 168.7828827  33.3068542
  74.6088028 168.6371002  34.2474022  75.1576233 168.3787079  30.3965206
  76.0627899 168.6682129  29.6973991  73.9959869 169.0162811  30.3942814
  73.2761078 168.6122894  30.9762344  73.6501923 170.1724701  29.5402546
  73.5347672 169.8181000  28.5159473  72.2948837 170.7166901  30.0142002
  71.4795685 170.0307312  29.7843552  72.2767944 170.8600616  31.0945816
  71.9558411 172.0252991  29.2792377  72.7773438 172.7270203  29.4235420
  71.8143082 171.8508606  28.2126350  70.6524887 172.6923218  29.7620125
  69.8864212 171.9220276  29.6732273  70.8256912 173.0602722  30.7733040
  70.2989807 173.8448181  28.9063072  71.1969299 174.4568176  28.8211994
  70.0687408 173.5579529  27.8802509  69.1393356 174.6797485  29.4042568
  69.1762543 175.0828705  30.3295803  68.9584351 175.4722443  28.8048077
  68.3064804 174.1103516  29.4515438  74.8066788 171.1989288  29.5856686
  75.1607437 171.7277985  28.5001144  75.4541855 171.5390625  30.7234898
  75.0531616 171.1820068  31.5789356  76.4072647 172.6650848  30.7637787
  76.0260468 173.5503540  30.2547951  76.7379532 173.0005951  32.2146378
  77.1162643 172.1587524  32.7945442  77.5691757 173.7049713  32.1826286
  75.6679535 173.7742767  33.0198174  74.7891083 174.4457245  32.4445496
  75.5663300 173.6054535  34.2771072  74.7194214 173.8536987  34.7682533
  76.1939926 172.9627838  34.7387505  77.6835175 172.3238525  29.9276276
  78.3367386 173.2117462  29.3935223  77.9880142 171.0217590  29.7472343
  77.3744812 170.3526001  30.1898441  79.1865387 170.6773682  28.9306469
  79.9729385 171.4148560  29.0912399  79.7530365 169.3177795  29.4551888
  79.0361862 168.5095215  29.3104839  80.6109695 169.0465240  28.8399887
  80.1701736 169.2198792  30.8448524  79.3434143 169.4557648  31.5148735
  80.4660797 168.1820984  30.9983425  81.3547897 170.0876160  31.2668266
  81.9446259 170.7617035  30.4134312  81.7977600 170.0739594  32.4667130
  78.8924713 170.6157532  27.4425888  79.8129120 170.5031433  26.6317616
  77.6576996 170.7738800  27.0141277  76.9311142 170.8050232  27.7149849
  77.2864609 170.8188171  25.5776329  77.7686005 169.9326324  25.1649418
  75.7069244 170.6978455  25.3223686  75.2048035 171.4422455  25.9403172
  75.3773270 170.9226532  23.8091850  75.9637756 170.2308044  23.2045975
  74.3024521 170.9117889  23.6285591  75.6903610 171.9257660  23.5195980
  75.2137527 169.3032837  25.6768074  75.7626495 168.6395264  25.0087948
  75.4634399 169.1498108  26.7266655  73.7180557 169.1523132  25.5496655
  73.3850021 169.1316223  24.5120049  73.3497086 168.2963409  26.1151161
  73.3162460 170.0171051  26.0776672  77.9203568 172.0064240  24.8741360
  77.7855530 173.1401367  25.4191799  78.6236038 171.8317413  23.7326889
  78.7317810 170.9321594  23.2864227  79.2203293 172.9062653  22.9837952
  78.5900879 173.7830658  23.1325073  80.6468735 173.2288361  23.4414062
  80.8882294 174.2892609  23.3681221  80.6857605 173.0344696  24.5132313
  81.7617188 172.3257446  22.8793850  82.0969086 171.0867920  23.4750195
  81.4746552 170.6990509  24.2680244  83.1967163 170.3302917  22.9633942
  83.3196411 169.3960724  23.4911518  83.9585190 170.8322296  21.8884487
  84.8835297 170.3716431  21.5744247  83.6489716 172.0665894  21.3198147
  84.3007126 172.5381165  20.5991840  82.5916824 172.8196106  21.8714542
  82.3866119 173.8141937  21.5038128  79.2387390 172.5866394  21.4759960
  79.3272629 171.4327698  21.0562344  79.0531006 173.6572571  20.7090473
  78.8363800 174.5323486  21.1643963  78.7373810 173.5856628  19.2643604
  78.1654129 172.6818542  19.0543671  77.7731781 174.7380524  18.9057369
  78.2171631 175.7030792  19.1501102  77.5949631 174.5918884  17.8403854
  76.5080566 174.6077118  19.5875969  76.1331635 175.4713745  19.7750740
  79.9830627 173.5175476  18.4040489  80.5034103 174.5290985  17.9453182
  80.4808884 172.3149109  18.2773075  80.1587601 171.5737762  18.8831654
  81.6998978 171.9723511  17.4946251  82.4941101 172.7004700  17.6594524
  82.3118286 170.6052399  18.0306282  82.4763184 170.7245789  19.1015167
  81.5709610 169.8434906  17.7878075  83.6453323 170.2665710  17.3091908
  83.4451523 170.3177185  16.2389488  84.7778702 171.2361755  17.6611462
  84.9236145 171.2875214  18.7401390  85.6856079 170.8806000  17.1736393
  84.6371155 172.2747803  17.3618240  84.1410904 168.8792572  17.6196938
  83.5309525 168.0840912  17.1912518  85.1255264 168.6873322  17.1928978
  84.2487793 168.6845703  18.6867466  81.4199524 172.0196228  15.9335556
  82.3994293 172.2524872  15.1645441  80.1473770 172.0000305  15.4820395
  79.4180069 171.9892578  16.1806183  79.7305298 172.2133179  14.1133671
  80.6182861 172.1941681  13.4812050  78.7636337 171.0242004  13.7976589
  79.1771774 170.0466461  14.0455751  77.8161926 171.0660706  14.3349676
  78.5820694 171.0171204  12.4486046  78.3719635 170.1425323  12.1131210
  79.0176010 173.5807800  13.9771404  78.5330505 174.1294250  14.9412527
  78.8117828 174.0024567  12.7546368  79.3299942 173.5095520  12.0414696
  77.7767410 174.9874115  12.3156757  77.6598053 175.8321075  12.9945889
  78.1492691 175.6573639  10.9561882  78.1663971 174.9652100  10.1143208
  77.3864517 176.3864899  10.6831131  79.4875793 176.4237671  11.0014553
  80.3330002 175.7376251  11.0520964  79.5549622 177.1842194   9.6134872
  78.8085938 177.9667206   9.4766111  80.4903641 177.7436371   9.6003761
  79.5654449 176.4638367   8.7955503  79.7029343 177.4692535  12.0524216
  79.7287292 176.9823608  13.0272923  80.6838684 177.9120026  11.8796520
  78.8442001 178.1391296  12.0966234  76.3537598 174.4009705  12.2514553
  75.3205719 175.0659027  12.2734547  76.2926407 173.0504150  12.4584866
  77.1351852 172.4934998  12.4506359  75.0526733 172.2993469  12.7301702
  74.2553635 172.8146820  12.1946077  75.1125793 170.8128815  12.2339878
  75.8991928 170.2552032  12.7422552  74.1875992 170.2900085  12.4771280
  75.4542389 170.6640320  10.4282751  75.5312271 169.3316498  10.3674011
  74.6742020 172.4654083  14.2350760  73.7112045 171.8319092  14.6893082
  75.3896561 173.2509766  15.0289459  76.1122055 173.7955933  14.5801411
  75.1997299 173.3528748  16.4463539  75.6329956 174.2743225  16.8353405
  74.1428223 173.3548584  16.7129002  75.9142456 172.2272186  17.2494736
  77.0049515 171.8423920  16.8116245  75.3615875 171.7579651  18.3694038
  74.1711349 172.3049316  18.9817715  73.2690506 172.2772675  18.3705692
  74.3579330 173.3339844  19.2887821  73.9892349 171.3820190  20.1509914
  73.4570236 170.4913177  19.8170719  73.5103836 171.9004669  20.9816647
  75.3121490 170.8835297  20.5602665  75.1503296 169.9406586  21.0826740
  75.8363800 171.5988007  21.1940479  75.9963608 170.6957550  19.1982708
  77.0589294 170.8934326  19.3395329  75.9646301 169.2412567  18.6997070
  76.5237885 168.3242035  19.3086987  75.2427673 168.9434052  17.6143074
  74.7254639 169.6609344  17.1268044  75.1114960 167.5859070  17.0890102
  76.0364609 167.0336456  17.2549095  74.0005798 166.9903564  17.9221821
  73.9635696 167.3512878  18.9500217  73.0947800 167.2481232  17.3733730
  73.9834824 165.4543610  18.0111618  74.0155945 165.0482788  17.0001335
  74.7461624 165.1235809  18.7161541  72.4061356 164.8883514  18.8381081
  71.2151260 165.1983337  17.5109959  71.3066864 164.3999329  16.7746010
  70.1763229 165.2025146  17.8411217  71.3909073 166.1555481  17.0201569
  74.8611755 167.5674896  15.6047621  74.2749405 168.4677734  15.0496712
  75.3043823 166.4773712  14.9603796  75.9988632 165.9114075  15.4267368
  74.8427124 166.1654510  13.5647974  73.8989487 166.6321716  13.2827110
  75.8563766 166.6672363  12.5344419  76.8192902 166.1851807  12.7032566
  75.5429001 166.5250244  11.5002232  76.0213394 167.7126617  12.7951765
  74.7316895 164.6127167  13.4123383  74.7808838 163.9019928  14.4334497
  74.5236969 164.1636963  12.1607924  74.7660828 164.7900696  11.4064732
  74.6385193 162.7713776  11.8782616  74.6325836 162.2070923  12.8108091
  73.3229065 162.2660980  11.1522131  73.1757584 162.8125458  10.2206326
  73.5016327 161.2767639  10.7310362  72.3970261 162.3833313  11.7153320
  75.9227448 162.4945374  11.0047436  76.1239395 163.2006073   9.9917192
  76.7102280 161.4373322  11.3581219  76.5267410 161.0777283  12.2839298
  77.9285507 161.0482330  10.6502018  77.9789429 161.6488037   9.7419748
  79.1492233 161.4892731  11.4804115  79.2850037 160.8036652  12.3168316
  80.0075989 161.4379425  10.8105879  79.2379837 162.9705353  11.9880075
  79.6683807 164.0812225  11.1885529  79.9626923 163.9382324  10.1593113
  79.8102951 165.3190765  11.7467022  80.0246277 166.1331482  11.0701380
  79.4356308 165.5626221  13.0808506  79.4689255 166.8133698  13.6080256
  79.8698349 167.4602966  13.0229111  78.8511810 164.4803009  13.8640757
  78.5596008 164.6208038  14.8944349  78.7861862 163.1814880  13.3015060
  78.4464798 162.3333893  13.8774662  78.0089874 159.5215607  10.3412542
  77.1878510 158.7796326  10.7780342  78.9837723 159.0502167   9.5543842
  79.6264191 159.7480621   9.2078075  79.1174088 157.5656738   9.2496290
  78.4433517 156.9868927   9.8811007  78.5764313 157.2333832   7.8189011
  78.6631393 156.1641693   7.6255689  77.1385422 157.5168152   7.7811446
  77.0309601 158.5781860   8.0048180  76.7194214 157.3790741   6.7844186
  76.6036911 156.8604279   8.4675617  79.3068161 158.0224915   6.7188315
  80.3588409 157.7491455   6.8002677  78.8353729 157.6444550   5.8116741
  79.0415039 159.0659637   6.8887148  80.4528732 156.8551178   9.3771029
  81.4846344 157.3426056   8.9138098  80.4928055 155.5743713   9.9032059
  79.6410751 155.1246948  10.2072592  81.7217941 154.7088928   9.8850622
  82.5175095 155.4269562  10.0833158  81.7144241 153.6978912  11.0706425
  82.7362213 153.3273926  11.1528339  81.3579636 154.1619263  11.9902668
  80.8537216 152.4222565  10.8568373  80.0239410 152.3856201   9.9891052
  81.0794144 151.4069061  11.5558624  80.5874786 150.5254517  11.5221510
  81.7766724 151.5785370  12.2661219  81.9350662 154.0732880   8.5187750
  81.0157394 154.1446075   7.6426306  83.0401917 153.3051147   8.2423029
  84.2638626 153.3419037   8.9999838  84.2601624 152.6629333   9.8526764
  84.5086899 154.3373566   9.3704576  85.3509750 152.7707825   8.0538464
  86.0387650 152.2127380   8.6891747  85.8912582 153.5604401   7.5316906
  84.6418991 151.8374481   7.1110744  84.6079865 150.8741302   7.6199694
  85.1254883 151.8551483   6.1343818  83.2679749 152.5243988   7.0005627
  83.3204803 153.2997742   6.2362761  82.1414948 151.5319519   6.7230902
  81.7577896 151.2798157   5.5390267  81.5584183 150.9193268   7.7402935
  81.9421387 151.0400848   8.6667280  80.4626389 149.9051666   7.5555263
  80.7188034 149.5366669   6.5622029  80.6003571 148.7422333   8.5355511
  80.0724335 149.0320892   9.4440517  80.0145111 147.9524384   8.0653334
  82.0272751 148.3044586   8.8172064  82.8318787 148.8990479   9.8317680
  84.0624695 148.3893890   9.6476688  84.9440613 148.5341339  10.2545052
  84.0943680 147.6387177   8.5480919  84.9318466 147.1554871   8.2561884
  82.7943954 147.4699707   8.0475464  82.3992310 146.9199982   7.2062469
  79.0230331 150.5051270   7.5309405  78.0785751 149.8219757   7.9348731
  78.8225098 151.7299652   7.0900798  79.6505051 152.3076935   7.0625620
  77.5264587 152.3566589   6.6817741  77.7073212 153.3785400   6.3484144
  77.1023102 151.8664398   5.8054833  76.4251633 152.5812836   7.7999272
  75.3874588 153.0426178   7.4184647  76.7608490 152.3060608   9.0818272
  77.6510620 151.8519897   9.2282429  75.9244843 152.7517395  10.2191687
  74.9066544 152.3774261  10.1096210  76.5439987 152.1793213  11.5317268
  76.8232574 151.1516724  11.2992926  77.4604416 152.7350311  11.7302904
  75.5455856 152.1268463  12.7268448  74.7680664 150.9879303  12.8847408
  74.9421082 150.1072998  12.2842426  73.7139206 150.9242096  13.8110409
  73.2107239 149.9831696  13.9772520  73.4890671 152.0911560  14.6082697
  72.4855804 152.0482178  15.5390253  71.8015518 151.3982391  15.3623095
  74.2898178 153.2601929  14.4625750  74.1557922 154.0545959  15.1818466
  75.2761536 153.3374939  13.4306688  75.8678360 154.2216644  13.2447710
  75.9414978 154.2666473  10.3770952  76.9994125 154.8865662  10.2517796
  74.7713928 154.8915405  10.7206078  73.9633636 154.2867737  10.6824446
  74.5920410 156.3207550  10.9013824  75.4717865 156.7131500  10.3913059
  73.4064255 156.9954834  10.2083378  72.4890823 156.7693481  10.7518930
  73.6120987 158.5283966  10.2864132  74.5284348 158.8568726   9.7959709
  72.8260193 159.0751953   9.7656555  73.5799866 158.8878632  11.3149309
  73.3671722 156.5257568   8.6874924  73.4590836 157.3553314   7.9864631
  74.1350098 155.7773590   8.4914360  72.0561676 155.8785248   8.2966833
  71.3419495 156.6829529   8.4724379  72.0669785 155.5277100   7.2647357
  71.8837738 155.0572662   8.9923410  74.6710052 156.6435699  12.4499111
  73.8610229 156.2571716  13.2719679  75.7462387 157.3139191  12.7946157
  76.4540634 157.4709778  12.0914707  76.0872345 157.6727142  14.1708527
  75.5458374 157.0128326  14.8487511  77.5989685 157.3470154  14.4428101
  78.1609116 157.6844482  13.5719099  77.9510498 157.9329376  15.2918272
  77.8745117 155.9173279  14.7053480  77.4771881 155.1309052  15.7567081
  77.9575195 153.9178467  15.5202026  77.7263260 153.0390778  16.1039066
  78.7139816 153.9233551  14.4063721  79.2525482 153.1686707  14.0057554
  78.6431274 155.1850128  13.8469658  79.2482224 155.5549164  13.0324593
  75.7168350 159.1642303  14.3674011  76.3077850 160.0072021  13.7647686
  74.7347717 159.4598694  15.2480965  74.2596130 158.7335052  15.7645388
  74.3342209 160.8223114  15.6884146  74.6825485 161.5035858  14.9121180
  72.8230667 161.1002960  15.7318993  72.3118515 160.4099426  16.4028378
  72.6502075 162.0389557  16.2583427  72.0842896 161.2741241  14.4185476
  72.5875015 162.0750427  13.8768682  72.2928772 160.3904877  13.8153830
  70.5802231 161.5876312  14.6430883  69.9392776 160.7115326  15.3011484
  70.0289001 162.5750885  14.0609064  75.1080322 161.1628418  16.9862347
  74.7227783 160.6761169  18.0680447  76.1572876 162.0297241  16.9550991
  76.4033356 162.5222931  16.1083717  77.0149994 162.3006592  18.1099243
  76.6559067 161.6680145  18.9216595  78.5396347 161.9803619  17.9947662
  78.9975815 162.0667267  18.9801216  78.8049545 160.5630951  17.5227127
  78.1502457 160.2343750  16.7156200  79.7832870 160.4699249  17.0512409
  78.8073654 159.8756561  18.3685951  79.1331635 162.8116302  17.0664711
  78.6957626 163.6577148  16.9464073  76.7999649 163.7100830  18.7115345
  77.0972061 164.6934967  18.0205479  76.5668488 163.8446960  19.9975777
  76.4931717 162.9637604  20.4860764  76.6152420 165.0339355  20.8243713
  76.1815109 165.8855133  20.3001633  75.6221161 164.8098602  21.9631424
  74.6123962 164.6720428  21.5763988  75.9168015 163.9806824  22.6063595
  75.5183868 166.0615387  22.8404160  76.5475159 166.3679199  23.0278320
  74.6674881 167.1739502  22.1929150  73.7229385 166.7640381  21.8352909
  74.4691391 167.9744263  22.9056549  75.0722961 167.6643219  21.3076115
  74.9243088 165.6574249  24.2274342  75.4010925 164.7601166  24.6219292
  74.8309631 166.5888214  24.7858944  73.9090424 165.2669983  24.1573391
  78.0586166 165.3163452  21.2755890  78.7283707 164.4702759  21.8508682
  78.5192261 166.5475311  21.0158195  77.9826584 167.1292572  20.3882923
  79.8590927 167.0573730  21.4334221  80.4836731 166.1843414  21.6227150
  80.4519043 167.7900391  20.2279587  81.2557297 168.4147644  20.6174374
  81.0180130 166.8415833  19.1496410  80.1818085 166.6424255  18.4794159
  81.8083725 167.3970032  18.6447315  81.4147415 165.9397736  19.6159573
  79.6029510 168.6926270  19.5282574  80.0128784 168.9186554  18.6901226
  79.8177109 167.8359680  22.7739830  78.9685898 168.7260437  22.9834023
  80.6536026 167.4454498  23.7048569  81.2854080 166.6865234  23.4928455
  80.7300720 167.9707031  25.1201744  80.4103012 169.0126953  25.1094589
  79.8638611 167.1357574  26.1329479  79.9721146 167.6582489  27.0834084
  78.3820801 167.0466003  25.7258282  78.3815460 166.3205719  24.9128189
  77.7847900 166.6549988  26.5492382  77.9753113 167.9779205  25.3317699
  80.2601166 165.6820984  26.3740635  81.1354523 165.6790619  27.0235882
  79.4872284 165.1502533  26.9289417  80.4904022 165.1517029  25.4500694
  82.1981430 167.9230652  25.6440411  82.9278336 166.9644623  25.4292717
  82.6673126 169.0199585  26.2621231  82.1098404 169.8310699  26.4889011
  84.0446014 169.1275482  26.7683983  84.7388763 169.0492401  25.9317646
  84.2469025 170.4389343  27.4823132  83.6160507 170.5144043  28.3679943
  85.2861633 170.6191559  27.7571869  83.9929047 171.6495361  26.5791779
  84.8793640 171.9190674  25.5033302  85.5861588 171.1646729  25.1907120
  84.7585449 173.1037903  24.7179585  85.4215622 173.3299255  23.8959637
  83.6573410 173.9338684  24.9718494  83.4916611 175.1119232  24.3491116
  83.7639847 175.0555878  23.4302731  82.8537674 173.7286835  26.1430416
  82.0697861 174.4407196  26.3546143  83.0079651 172.5838470  26.9251518
  82.4132614 172.4250641  27.8125725  84.3372574 168.0025940  27.8272762
  85.4481277 167.4400330  27.8063831  83.3369598 167.5306244  28.5998993
  82.4790497 168.0312347  28.7828579  83.6005630 166.5310059  29.6203079
  84.5514603 166.0306091  29.4373093  83.8316422 167.2451477  30.9823875
  84.5020828 168.0583191  30.7042065  82.9018250 167.6958618  31.3293896
  84.4880219 166.4619904  32.1197929  83.8459625 165.6006470  32.3040848
  85.4194412 166.0585632  31.7225437  84.7635345 167.3171539  33.3994827
  85.3167725 168.2035828  33.0891838  83.7727127 167.6134644  33.7438126
  85.5053635 166.5158386  34.4994965  85.3114243 166.9753113  35.4687119
  85.1647034 165.4903717  34.3564224  86.9688187 166.5419312  34.2972870
  87.3659973 167.4666138  34.3827553  87.3612213 166.1370087  35.1352386
  87.2192841 166.1375427  33.4063072  82.5414734 165.4347687  29.7425652
  81.3842621 165.6636047  29.4382858  82.8906403 164.2214966  30.1082897
  83.8858490 164.1058044  30.2358780  82.0503159 163.0888519  30.3883457
  81.0202560 163.3345795  30.6465950  81.8525925 162.2393799  29.0909424
  82.8800049 161.9930878  28.8228340  81.1570969 161.4077454  29.2039490
  81.4524002 162.9586639  28.3763981  82.6244049 162.2939911  31.6080189
  83.8232040 162.1522522  31.8098125  81.7264175 161.8430786  32.4641075
  80.7403336 161.8824158  32.2491646  82.0574570 161.4086761  33.8110313
  82.9252090 162.0168915  34.0663261  80.9360428 161.8911591  34.7484970
  79.9080734 161.5943756  34.5404015  81.1764755 161.4940948  35.7347221
  80.9047394 163.7099762  34.7549019  79.7919846 163.9244232  35.4624825
  82.3241577 159.9423065  33.9335976  83.5041885 159.5320435  33.9235382
  81.3095322 159.1239014  33.9714432  80.4012604 159.5527802  33.8655357
  81.3088303 157.6388245  34.0331345  82.1371689 157.2846375  34.6467209
  80.0433197 157.1070251  34.7413635  79.1918869 157.6400146  34.3182030
  79.7705688 156.0547180  34.6614418  80.0516129 157.3572693  36.2429237
  80.9143829 156.9691315  37.0424843  79.1332626 158.1570282  36.5937576
  79.0454636 158.3743134  37.5761909  78.5048218 158.5901184  35.9322510
  81.5235748 157.0125580  32.6123924  80.8103027 156.0961609  32.1464882
  82.6271973 157.3792419  31.9090252  83.1082077 158.2115326  32.2188988
  83.1491318 156.6735535  30.7577934  82.4926682 155.8611298  30.4461441
  83.2083359 157.6154785  29.5172672  83.9358292 158.4128723  29.6689739
  83.5859146 157.0193329  28.6865234  81.8794022 158.1745453  29.0083981
  81.4163361 158.7728119  29.7930965  82.0723953 159.0238495  27.7726173
  82.4272079 158.5137634  26.8770618  81.0826721 159.3301697  27.4339256
  82.7165756 159.8699036  28.0120239  81.0453644 156.9334869  28.5423508
  80.7248154 156.4463959  29.4632721  80.1456604 157.3396301  28.0800762
  81.5437469 156.2509918  27.8539391  84.5622101 156.0551453  30.9970398
  85.3779449 156.5936279  31.7570343  84.9046097 154.9358368  30.2928505
  84.1845627 154.6767273  29.6336899  86.1750107 154.2760468  30.1785278
  86.8564911 154.8664246  30.7910213  86.0390244 152.8298950  30.7556915
  85.3960495 152.2099304  30.1309338  87.0440445 152.4090881  30.7246838
  85.5856476 152.7227173  32.2545815  84.8328323 153.5182800  32.8031273
  85.9636383 151.6609192  32.9353104  85.7415237 151.5592957  33.9153328
  86.3217316 150.8408203  32.4670067  86.6143112 154.2850647  28.6892719
  85.8221054 154.5515442  27.8143501  87.8890533 154.0572205  28.4684238
  88.4457245 153.7360229  29.2475586  88.4385910 153.9409332  27.1289978
  87.7500839 154.3072968  26.3675346  89.6478424 154.8672028  26.9514694
  90.4952240 154.4285431  27.4783630  89.9035645 154.9604187  25.8959980
  89.6056366 156.3247223  27.4797077  89.2969589 156.3413086  28.5249577
  91.0189819 156.9354401  27.2185535  91.3326950 156.6971588  26.2022305
  91.0723038 157.9984283  27.4536953  91.7089615 156.4211578  27.8875408
  88.6207352 157.1795654  26.6641579  87.6515884 156.6828308  26.6183376
  88.5496445 158.1657562  27.1229305  89.0187073 157.3136902  25.6583118
  88.8392181 152.5179596  26.7101879  89.3946762 151.7937164  27.5393009
  88.6961746 152.2724762  25.4038239  88.2247314 152.9668884  24.8420067
  89.2246857 151.0358887  24.7705402  89.9544449 150.6236267  25.4673786
  88.2224884 149.9124603  24.6947575  88.5790176 149.0243073  24.1730461
  88.0502090 149.6091003  25.7274208  87.0163040 150.4341583  24.1053009
  86.3560791 150.4185791  24.8020535  89.9009705 151.2568512  23.3668575
  89.5880661 152.1899414  22.6403542  90.7909393 150.2915344  22.9491253
  90.9259186 149.4468689  23.4861679  91.5917511 150.3954620  21.7548618
  91.9433899 149.4302673  21.3903561  91.0335846 150.9246216  20.9825001
  92.8725204 151.1874847  22.0384808  93.4009323 151.2688904  23.1463394
  93.3810501 151.8157959  20.9592495  92.9792786 151.6406097  20.0493088
  94.2599258 152.9653625  21.1024952  94.0960236 153.3059235  22.1248722
  95.6936569 152.5714569  20.7322540  95.6420517 152.1011200  19.7503052
  96.3840256 153.4054108  20.6057701  96.3030777 151.5716858  21.7110329
  95.6475906 150.7064972  21.8105907  97.2371368 151.2031250  21.2870045
  96.5822525 152.2906036  23.0296707  97.2077866 153.1773834  22.9274158
  95.6258163 152.5592804  23.4781475  97.3593292 151.2965393  23.8317509
  98.3635788 151.3712006  23.7542629  96.9399948 150.2836304  24.5443478
  95.7194901 150.1915741  24.8712215  95.1139908 150.9734650  24.6660271
  95.3084564 149.3341827  25.2118759  97.7603607 149.2920532  24.8527393
  98.6768723 149.1699219  24.4463139  97.3880005 148.5391388  25.4136066
  93.7606049 154.0243988  20.0936756  93.0426712 153.6432190  19.1832809
  94.0429993 155.3578491  20.3298626  94.7445755 155.9029083  21.5111141
  95.8197784 155.8502808  21.3400593  94.5103836 155.2077789  22.3173752
  94.2856369 157.3231506  21.7224178  95.0350189 158.0400848  22.0578728
  93.4316864 157.3550110  22.3990631  93.8248444 157.7264404  20.3157692
  94.5751038 158.1960449  19.6796265  93.0025177 158.4176941  20.5002689
  93.4610138 156.3940277  19.5485725  92.4206696 156.1551056  19.7692890
  93.8090439 156.4408417  18.0836277  94.9890060 156.2311707  17.6829720
  92.8677368 156.6750336  17.1831818  91.9015350 156.6191406  17.4720173
  93.1628113 156.6408997  15.7212400  94.2242889 156.8281403  15.5590706
  92.8273163 155.2404327  15.2293615  93.4813690 154.4885406  15.6709347
  91.8126831 154.9665680  15.5185394  93.0672455 155.1951294  13.8382607
  93.2834015 154.2868500  13.6148815  92.3874741 157.6373291  14.8336458
  91.3179703 158.1005859  15.2955465  93.0424271 158.0894623  13.7523470
  93.9561768 157.7202606  13.5312767  92.6292114 159.1212616  12.8709583
  91.8514328 159.6967010  13.3729792  93.7798233 160.0390320  12.4245605
  93.3864594 160.8330536  11.7898207  94.3670807 160.7320099  13.6766357
  94.6756439 160.0366364  14.4572334  95.2701492 161.2872314  13.4230423
  93.5597458 161.3162231  14.1182308  94.7421112 159.2492828  11.6456327
  95.4646759 159.8148346  11.3633995  91.9667664 158.5454254  11.5764236
  91.4132614 159.3523865  10.8154840  91.9359818 157.1903229  11.4551783
  92.3514633 156.6721191  12.2160540  91.1487579 156.5833893  10.3536453
  91.5142822 156.9762726   9.4048920  91.4382477 155.0625305  10.3913479
  91.1385651 154.7017822  11.3752928  90.8369980 154.5228729   9.6596689
  92.9453735 154.6846619  10.2200651  93.5764008 154.9237213  11.0760756
  92.9530334 153.6093445  10.0418987  93.4769287 155.2976532   8.8600130
  92.7401657 155.3093872   7.8436704  94.6356430 155.7792816   8.9032917
  89.6229782 156.9180450  10.3025980  88.8395691 156.5414429  11.2192554
  89.2271957 157.5024109   9.2314329  89.9328156 157.7240601   8.5436211
  87.8098145 157.8235168   8.9525042  87.7609329 158.2844238   7.9659553
  86.9304733 156.5036621   8.8452148  87.6067657 155.6700439   8.6560087
  86.4939651 156.2948151   9.8219147  85.8553772 156.4117126   7.7422791
  84.4632950 156.5400391   8.0311871  83.8269196 156.4706573   6.7963896
  82.7607346 156.4147339   6.6335330  84.7098007 156.2555389   5.8055115
  84.4661560 155.9953461   4.8605061  85.9792023 156.2938995   6.3701439
  86.9283295 155.9913788   5.9529543  87.2294693 158.8726654   9.8728580
  85.9791183 159.0555115   9.8224077  88.0569000 159.5954437  10.6921005
  89.0317154 159.3428650  10.6143675  87.4750595 160.4936676  11.6978140
  86.8358307 160.0000458  12.4298115  88.6204147 161.0406189  12.5343723
  89.0911789 160.2630463  13.1359377  89.4648895 161.3265991  11.9073286
  88.1902924 162.1665344  13.3060741  88.8751831 162.4514160  13.9154739
  86.6486664 161.6959076  11.1126242  87.0691376 162.5008392  10.2702560
  85.4931488 161.9648132  11.7022762  85.2005844 161.2682495  12.3725929
  84.5120010 162.9967957  11.3434486  84.4311066 162.9463196  10.2576218
  83.1519089 162.6421051  11.9596491  83.2528839 162.7731781  13.0370178
  82.3485489 163.3152771  11.6603966  82.7006073 161.2228699  11.7985582
  82.7845383 160.4739838  10.6616020  83.0487366 160.8750153   9.6942472
  82.4339600 159.1510620  10.9001875  82.4462814 158.4001160  10.2248840
  81.9581604 159.0223846  12.1544905  81.3762207 157.9824219  12.8380585
  81.1137695 157.0124207  12.4422836  81.0440903 158.1168365  14.1902733
  80.6666870 157.2921448  14.7766542  81.2616043 159.3462677  14.8666658
  81.0913620 159.3651276  15.9329987  81.7749023 160.4331360  14.1624374
  81.8988571 161.3395844  14.7363749  82.1499786 160.2946777  12.8050079
  84.9765549 164.3790588  11.6713381  84.3365860 165.3116455  11.2758446
  86.0757446 164.5145569  12.3971567  86.4289703 163.6352234  12.7466154
  86.5876312 165.7385864  13.0174932  86.0592880 166.5916290  12.5917501
  86.2439117 165.7129211  14.4695673  86.7615738 164.8598022  14.9080734
  86.5545731 166.6035309  15.0158539  84.7850952 165.5853271  14.8214722
  83.9115982 166.6980591  14.7386179  84.1775360 167.6852875  14.3906813
  82.5486603 166.5148773  15.0950136  81.8316803 167.2996521  14.9040728
  82.0892563 165.3842926  15.7477465  81.0740280 165.3900452  16.1160755
  82.9067688 164.2558899  15.8131647  82.5036316 163.3691101  16.2795353
  84.2192459 164.4028778  15.4034605  84.8672562 163.5491791  15.5364666
  88.1280136 165.8922272  12.7034807  88.9555893 165.3270111  13.4342699
  88.5714417 166.6892090  11.6402416  87.7273560 167.3084869  10.6517906
  87.4510269 168.3167419  10.9602909  86.8048019 166.7923889  10.3860245
  88.5305023 167.4487610   9.3703203  88.0983505 168.2469788   8.7668304
  88.3638306 166.5039520   8.8529587  90.0167618 167.6786499   9.9459896
  90.2951965 168.7076874  10.1732302  90.7815933 167.3197632   9.2572613
  89.9596558 166.7596741  11.2089806  90.2658615 165.7738037  10.8590946
  90.9145203 167.2200928  12.2728071  90.7726364 168.1520538  13.0644321
  92.0972443 166.6350403  12.3242207  92.2473145 165.9098053  11.6374893
  93.1160431 166.8101349  13.3104572  93.9935913 166.2628174  12.9662685
  93.3465881 167.8557129  13.5146618  92.8795319 166.0978699  14.6274815
  93.5827560 166.3973389  15.5790157  91.8804321 165.2539978  14.7590723
  91.2709961 165.0965576  13.9691954  91.5315933 164.4849854  15.9651308
  92.3679962 164.6933136  16.6323090  90.1777802 165.0086060  16.6309948
  89.4191971 164.8358307  15.8675766  89.9548264 164.4172058  17.5190525
  90.1806183 166.4583893  17.0795441  90.4010239 166.7401123  18.4285564
  90.4551315 165.9218750  19.1313839  90.2929840 168.0247192  18.8744202
  90.5399780 168.2466736  19.9021091  89.9315414 169.1141815  18.0559788
  90.0414047 170.3884277  18.4854088  90.0429230 170.4440460  19.4437962
  89.7592392 168.8222809  16.7056713  89.3912888 169.6528168  16.1215076
  89.8234406 167.4786224  16.2097015  89.5453033 167.1427765  15.2216511
  91.4740677 162.9951935  15.8401623  90.8373947 162.5294342  14.9307079
  92.1519012 162.2253876  16.6877289  92.7723999 162.6939240  17.3323727
  91.9847565 160.7965546  16.8897514  91.8220901 160.2466888  15.9627676
  93.2806778 160.2246857  17.5198326  93.5851059 160.9375458  18.2861557
  93.0480957 159.3141785  18.0720806  94.1336899 160.1434631  16.8461285
  90.7295227 160.4889069  17.7548161  90.5082932 161.1218414  18.8151093
  89.9116287 159.5142822  17.2865963  90.0856705 159.1133881  16.3760509
  88.8516998 158.9164276  18.0885811  88.3306351 159.6417847  18.7134323
  87.7371216 158.3482819  17.2004318  87.0259094 157.8176575  17.8334484
  87.2838974 159.2261353  16.7399139  88.1761627 157.5425720  16.0516853
  88.2263489 157.9205780  14.7624922  88.0295715 158.8904877  14.3301163
  88.6850586 156.8645630  14.0131788  88.7741318 156.9490356  13.0106659
  88.8314438 155.6670074  14.6934862  89.2581024 154.3617554  14.3936625
  89.4698029 154.1587830  13.3542490  89.3972778 153.4149628  15.4350586
  89.7115021 152.4406433  15.0909824  89.0733185 153.7794495  16.7476273
  89.1395569 153.0322723  17.5246429  88.6986542 155.0946350  17.0342922
  88.4336319 155.3147125  18.0578785  88.5553818 156.1027832  16.0527096
  89.4205017 157.7592468  18.9513035  90.3940430 157.1077576  18.6007824
  88.7699356 157.4439545  20.0273495  88.1821899 158.2016296  20.3445053
  89.2098846 156.3287964  20.9198418  89.5677414 155.4851837  20.3296261
  90.3559799 156.7409058  21.8508606  91.2761078 156.8898926  21.2858219
  90.2453003 158.0085449  22.7405567  89.4101181 157.9173737  23.4350128
  91.1921005 158.0625000  23.2779179  90.0721588 158.9175720  22.1645355
  90.6284866 155.6579742  22.7039242  91.3417740 155.8928375  23.3019772
  87.9002762 155.9213715  21.6130810  87.1499252 156.7720795  22.0887604
  87.5392609 154.6539154  21.4835606  88.2555847 153.9958344  21.2116795
  86.2384644 154.1346283  21.7614899  85.5240555 154.6770020  21.1421680
  86.0998077 152.6275787  21.3846760  86.8712921 152.0469818  21.8904610
  84.8148727 152.0706635  21.8094769  84.0099564 152.6381531  21.3423767
  84.6834564 151.0107269  21.5919113  84.7074966 152.1482239  22.8914032
  86.2485580 152.2989349  19.8769875  85.4494095 152.7893372  19.3211460
  87.1898193 152.7659607  19.5871372  86.4318542 150.8291016  19.4482994
  85.4918060 150.2841949  19.5348148  86.7477493 150.7870789  18.4059258
  87.2494507 150.4435120  20.0573654  85.8983994 154.3881683  23.2663155
  86.6166687 154.0088806  24.2265110  84.6501236 154.8737488  23.4529800
  84.1370010 155.2758179  22.6815243  84.1293335 155.2142334  24.8207302
  84.9270401 155.3148651  25.5566959  83.4174805 156.5861359  24.7412987
  82.5066986 156.4840851  24.1512413  83.1897888 156.8554230  25.7726784
  84.0510483 157.3708191  24.3278179  83.1721573 154.0650635  25.2428112
  82.3979568 153.5524445  24.3896065  83.2651443 153.6289978  26.5262909
  84.0550385 153.9650726  27.0584660  82.3751907 152.6239014  27.1367168
  81.4908600 152.5737000  26.5014706  83.1481476 151.3331299  27.1082611
  84.1845169 151.5778046  27.3409996  82.7908859 150.7396545  27.9498367
  83.1963348 150.4537659  25.8619156  82.1831360 150.1791229  25.5684738
  83.6679153 151.0431671  25.0755844  84.0089951 149.1837311  26.0515518
  85.2257080 149.1849670  25.9432201  83.3603821 148.0760803  26.4226761
  83.9381943 147.3457794  26.8136902  82.3780365 148.2061157  26.6181011
  81.8164749 153.0935516  28.4491005  82.5559921 153.7436981  29.2383919
  80.6438904 152.5419006  28.8607979  80.1637421 151.9707489  28.1800976
  79.9833221 152.8584595  30.1224651  80.0032425 153.9280090  30.3317184
  78.4664612 152.7538300  29.8670750  78.1500168 153.3968048  29.0457668
  78.1736221 151.7256927  29.6542683  77.6041031 153.2338715  31.4377155
  76.3406677 152.8982544  31.1620426  80.5013199 152.1220093  31.3463478
  80.6667023 150.9163208  31.2719746  80.6084824 152.8094788  32.5381889
  80.4611511 153.8043671  32.4455719  81.4784851 152.4148407  33.6439400
  82.3773117 151.9202576  33.2757072  81.8760071 153.6763000  34.3472786
  82.3821945 154.3365173  33.6430244  80.9613571 154.1448212  34.7105980
  82.8505325 153.3837128  35.4593048  82.2276230 152.8920288  36.2065201
  83.6680298 152.7519684  35.1118927  83.3729706 154.6808624  36.0338936
  82.5820618 155.3148499  36.4346771  83.8638077 154.4683075  36.9836311
  84.3597107 155.3492432  35.1364441  84.3488159 155.1201935  34.1528168
  85.3966141 156.1160889  35.4248314  85.8744125 156.3637848  36.6330147
  85.4093704 155.9489288  37.4278336  86.7555542 156.8189850  36.8239746
  86.1714783 156.6635132  34.5264778  85.9605026 156.6233826  33.5395775
  86.8767395 157.3636932  34.7066803  80.8555374 151.3020020  34.5119781
  81.4965820 150.4160919  35.0479546  79.4562531 151.2028961  34.4611320
  78.9619598 151.9472961  33.9903336  78.6766052 150.2625122  35.2805252
  79.3167725 149.8707886  36.0709953  77.3992004 150.9483948  35.8971939
  77.0288391 151.6606598  35.1598854  76.2530594 150.0433960  36.3556137
  76.4819641 149.1549835  36.9441833  75.4469070 150.5938416  36.8406181
  75.7702713 149.5966034  35.4864807  77.7719421 151.9137115  37.1270828
  78.1919556 152.8022614  36.6557236  76.8555527 152.2793579  37.5903778
  78.6270294 151.2751465  38.2043114  79.6593857 151.0531921  37.9339867
  78.7545395 151.9113922  39.0801201  78.2071533 150.2988129  38.4463387
  78.2548294 149.0191956  34.4589615  78.1589355 147.9198761  35.0745316
  77.9734116 149.1590729  33.1476479  78.0181503 150.0875549  32.7526627
  77.5186005 148.0210266  32.2935181  77.5148315 147.1095886  32.8913002
  76.0710449 148.2102661  31.8441486  75.5962524 147.2558594  31.6166344
  75.5532761 148.5187683  32.7523613  75.9649506 149.5121765  30.5293121
  75.9052277 150.5384064  31.3826389  78.3509674 147.6864014  31.0294361
  78.1554337 146.6159515  30.4182644  79.3490295 148.4746704  30.6938896
  79.6341476 149.2185211  31.3147831  80.2454300 148.2095490  29.5724716
  81.2714462 148.5594482  29.6862888  80.3855820 147.1298218  29.5209427
  79.7731705 148.6330872  28.1655521  80.4571533 148.3936615  27.1811657
  78.5561447 149.2294006  28.0190849  77.9494553 149.3280182  28.8205204
  77.9668274 149.6101532  26.6793785  78.0261078 148.7852325  25.9693794
  76.5558624 150.0471802  26.9299107  75.9919662 149.3592834  27.5599270
  76.5315323 151.0042725  27.4509735  75.7518997 150.2568207  25.6226921
  75.7076035 149.4083862  24.7103157  75.0873337 151.3722839  25.4524899
  74.6410751 151.4283600  24.5481644  75.1850510 152.0958710  26.1503315
  78.7570496 150.7966919  26.0825958  79.1512299 151.7412872  26.8051758
  79.0840759 150.7008820  24.7957020  79.0047302 149.7964935  24.3530941
  79.6840210 151.7339935  23.9259453  80.6090393 152.0884399  24.3807125
  80.0504150 151.0807037  22.5817394  80.9711990 150.5108337  22.7062721
  79.2814178 150.4248657  22.1735554  80.3231430 151.9973755  21.4582977
  79.5861893 152.1989441  20.2363205  80.2477036 153.1343079  19.5528336
  79.8521881 153.6457672  18.6877460  81.3627930 153.5236511  20.2544022
  81.9891357 154.2708740  19.9908352  81.4662018 152.7313538  21.3958397
  82.2556076 152.7263947  22.1328640  78.7980499 152.9916229  23.7401428
  77.5852509 152.9047089  23.4999142  79.4231339 154.1619720  23.8688946
  80.4315948 154.1123047  23.8436031  78.8153305 155.4758606  24.0081749
  77.7416916 155.3679504  23.8540440  79.0389481 156.0046997  25.4538765
  80.0950317 156.1568909  25.6766472  78.5360107 156.9544983  25.6356430
  78.4872971 155.1287537  26.5920105  79.0994186 154.2338562  26.7041378
  78.4892578 155.6842346  27.5298500  76.8130493 154.6109009  26.4298306
  75.8971710 156.1933441  26.5537128  75.8222885 156.6780548  25.5802898
  74.9062576 155.9394989  26.9302197  76.3900681 156.8321991  27.2865276
  79.4167480 156.5010986  23.0395298  79.4390564 157.6753693  23.3659534
  79.9228821 156.0461884  21.8703690  79.8472595 155.0655823  21.6405525
  80.6457977 156.9237823  20.9298973  80.5417175 156.5190582  19.9231834
  80.2447357 157.9372253  20.9171410  82.0842667 157.0060272  21.4144173
  82.6796646 155.9740295  21.6301937  82.6717682 158.2411499  21.3660545
  82.0444489 158.9807434  21.0840015  84.1489868 158.3930359  21.4207535
  84.6613770 157.5150452  21.8140678  84.6224823 158.4329376  19.9347267
  84.3707733 159.3646698  19.4281387  85.7123489 158.4320679  19.9520454
  84.2463684 157.3367920  19.0204887  85.0069199 156.2554321  18.7764130
  85.9885178 156.0558319  19.1801605  84.3299103 155.3228455  18.0484447
  84.8319244 154.4944763  17.7622643  82.9777374 155.6897888  17.8389168
  81.8368301 155.1120758  17.3227806  81.8505478 154.0465851  17.1469078
  80.6604462 155.8862762  17.2099876  79.7867584 155.5209961  16.6907234
  80.6348572 157.2171173  17.6095829  79.7189865 157.7690887  17.4582043
  81.7707443 157.8326569  18.1706200  81.7562561 158.8299561  18.5848484
  82.9683304 157.0642395  18.2803192  84.6878586 159.6126556  22.2460041
  84.0264969 160.6910400  22.3095646  85.8725586 159.4735718  22.8150063
  86.3705597 158.5985107  22.7352390  86.7391281 160.6179657  23.2584553
  86.1572571 161.4820557  23.5791988  87.6374283 160.2228851  24.4219551
  87.0277634 159.7016907  25.1600475  88.3666153 159.5287781  24.0040874
  88.4024506 161.4093475  25.1434669  89.0703964 161.9568787  24.4785213
  87.6600876 162.1035919  25.5371952  89.2340240 161.0329285  26.3273811
  88.6328812 160.5271606  27.0829754  89.9621353 160.3151245  25.9495602
  90.0059204 162.1719971  26.9937248  90.3395615 162.8127594  26.1775131
  89.3506699 162.8688660  27.5163326  91.1070251 161.7458496  27.8835697
  91.7605057 161.1748505  27.3668118  91.7259445 162.4547119  28.2503700
  90.7143631 161.1671600  28.6122990  87.6255646 161.0446320  22.0669308
  88.1070175 160.1349640  21.3415699  87.8854141 162.3372498  21.9282341
  87.4479065 163.0635681  22.4770031  88.7315979 162.9200592  20.8973999
  89.0013809 162.0655212  20.2768574  87.8590698 163.7940216  20.0091209
  87.3143158 164.5768585  20.5368671  88.4850082 164.2702484  19.2544537
  86.8523865 163.0279999  19.1318359  87.2673416 162.5967712  17.8383942
  88.1971893 162.8783417  17.3666992  86.3121185 161.9124603  17.0671940
  86.5599670 161.6391296  16.0521774  85.0252609 161.6991272  17.5179043
  84.2744217 161.1882477  16.9334049  84.6221085 162.1313324  18.7868423
  83.6056671 161.8997955  19.0690422  85.5505753 162.7780914  19.6288490
  85.1972961 163.2075348  20.5546799  89.8605957 163.6457062  21.4927864
  89.6584244 164.3408966  22.4654446  91.0731583 163.5758514  20.9629803
  91.1421814 163.0152588  20.1256828  92.3255692 164.3009186  21.3582687
  91.9409256 165.1467133  21.9281597  93.1396332 163.3652954  22.3061657
  94.1018600 163.8408203  22.4961319  92.3834991 163.1367645  23.5895214
  91.5137482 162.4882202  23.4845448  93.0473938 162.6087799  24.2740498
  92.0482788 164.1385193  23.8582706  93.4627991 162.1183929  21.7247105
  93.9171295 162.2060547  20.8835831  93.0735626 164.7698212  20.0737400
  93.1441116 163.9685974  19.1500130  93.5002060 166.0025787  20.1008759
  93.4496460 166.5009918  20.9778805  94.0611649 166.7206879  18.9775524
  93.3066711 166.6355438  18.1955070  94.2141571 168.1853943  19.3260727
  95.0102158 168.2820740  20.0643444  94.4712982 168.6496124  18.3739815
  93.2625580 168.6534119  19.5780869  95.4569092 166.1232758  18.6084614
  96.2562332 165.8127289  19.5088787  95.8666229 166.1448669  17.3503857
  95.1946259 166.3336334  16.6203976  97.2371674 165.7161255  16.8711376
  97.7602844 165.1188202  17.6179199  97.1862793 164.9559937  15.5505886
  98.2242889 164.7361145  15.3010063  96.4166718 163.6579132  15.6649818
  95.3566055 163.8210907  15.8592653  96.4041290 163.0943909  14.7320347
  96.6804504 163.0500488  16.5304470  96.5485535 165.6763000  14.5188570
  97.0496597 166.4702759  14.3186541  98.2600784 166.7793121  16.7713852
  99.4386826 166.4553680  16.5618477  97.8224716 168.0599670  16.8964787
  96.8361053 168.2732391  16.9377747  98.7162399 169.2822876  16.9711285
  99.7741699 169.0198822  16.9659920  98.5276947 170.1448364  15.7170296
  97.4508362 170.2869873  15.6261044  98.9978638 171.1235352  15.8128548
  98.9248123 169.4562378  14.4080076  99.9188385 169.0466766  14.5876532
  98.2575378 168.6150970  14.2200851  99.0406647 170.3366547  13.1464853
  99.6387329 171.2184143  13.3765621  99.4913940 169.8082886  12.3063726
  97.6137695 170.7314301  12.7174883  96.9819489 169.8465729  12.6404085
  97.1677094 171.3997345  13.4540319  97.6395111 171.4180603  11.4229288
  97.9024124 170.8632202  10.6209669  96.7033920 171.7720337  11.2870226
  98.2503738 172.2223511  11.4144993  98.5983963 170.0573730  18.2999821
  97.4998245 170.1592102  18.9132137  99.7385254 170.6202240  18.6898785
 100.5370789 170.4794617  18.0877228  99.9189529 171.2895050  19.9837341
  99.5677567 170.5041351  20.6530170 101.3552856 171.4980164  20.2940998
 101.6021729 171.6176605  21.3490105 101.9834213 170.6763458  19.9499874
 101.9998856 172.7342377  19.6748981 101.8611221 172.6026306  18.6018066
 101.4729462 173.6143951  20.0433369 103.5298691 172.8116302  19.9992847
 103.6934738 172.6653290  21.0669594 104.0080719 172.0225677  19.4189491
 104.0764771 174.1692963  19.5752907 103.3883133 174.9358673  19.9315300
 105.0426025 174.2805023  20.0675545 104.2779541 174.3880005  18.1409092
 103.3861008 174.2800446  17.6793442 104.4952927 175.3556519  17.9497509
 104.9685364 173.7983093  17.6987934  99.1136246 172.5789948  20.2430382
  98.8887329 172.8548279  21.4045601  98.7466507 173.3452911  19.2440948
  98.9601517 173.0075684  18.3164845  98.0208359 174.6594696  19.3641109
  98.1428604 175.0016785  20.3917828  98.6647873 175.7448425  18.4175148
  98.1675568 176.7069550  18.5408821  99.6628036 175.8384705  18.8456535
  98.7900391 175.4591675  16.9440937  98.9455795 174.2517853  16.5820389
  98.8000946 176.4566193  16.1937408  96.4676819 174.6048737  19.1629906
  95.7018509 175.6028748  19.3189278  95.9630966 173.4175568  18.9057407
  96.5471268 172.6040192  18.7747002  94.5194778 173.2521210  18.5892410
  94.1433258 173.9992523  17.8903904  94.2410583 171.9360809  17.8202343
  94.5496368 171.0805817  18.4210777  93.1739044 171.9421692  17.5983200
  94.9834900 171.8554993  16.4602280  94.4548492 172.5223541  15.7790947
  96.0291061 172.0834503  16.6671753  94.9343109 170.0993958  15.8642836
  93.1870346 169.9143066  15.2662849  92.4887390 170.3225250  15.9969282
  92.9792099 170.3648834  14.2957773  92.8625870 168.8764496  15.1908436
  93.6756363 173.2204742  19.8164139  93.9239273 172.3567963  20.6916351
  92.6683960 174.0149841  19.8210526  92.4934921 174.5581665  18.9877090
  91.7628937 174.2677765  20.9304924  92.0072098 173.5654755  21.7274761
  91.8984833 175.6791840  21.5876694  92.9330215 175.8514404  21.8845940
  91.5485458 176.3594818  20.8112316  91.0564270 175.8304596  22.7153645
  91.4184494 176.4240723  23.3773060  90.3320389 174.0215454  20.4490910
  89.9639053 174.6977234  19.4319401  89.5648346 173.1245880  21.0556126
  88.1904755 172.8434296  20.7151699  88.1328354 172.4938812  19.6843472
  87.5479584 173.7115479  20.8622589  87.7336884 171.7667389  21.7159805
  88.1225433 170.8482819  21.2763023  86.6496811 171.8033447  21.8241711
  88.6077652 171.9506378  22.9512043  88.8501129 170.9868927  23.3990688
  88.1784668 172.7226257  23.5898228  89.9395370 172.4886322  22.3540459
  90.3091202 173.2497406  23.0412292  91.0587463 171.4177094  22.2658596
  91.1962891 170.7628174  21.2395821  91.8384628 171.2664490  23.2986126
  91.6956482 171.8656464  24.0990314  92.8003235 170.0945892  23.2933712
  93.5053711 170.1975250  22.4685059  93.6039963 170.2340546  24.5946026
  94.0933380 171.2073517  24.6309299  92.9173203 170.4331512  25.4173679
  94.6163025 169.1422882  24.9062767  94.9125671 169.3173828  25.9405251
  94.0809021 168.1952362  24.8390217  95.8750839 169.1040649  24.0856915
  96.0276947 169.7408905  23.0299587  96.8410721 168.3688202  24.6276588
  97.6528397 168.3048096  24.0301304  96.7231903 167.7680969  25.4309902
  92.1017609 168.7030640  23.1538105  92.7164917 167.7740784  22.5338840
  90.9393463 168.5361023  23.7878647  90.5176926 169.3292542  24.2496338
  90.1239395 167.2798462  23.9191742  90.3138275 166.6000214  23.0885811
  90.4299927 166.5838013  25.2745266  89.8558197 165.6580048  25.3106461
  91.4878235 166.3217621  25.2540588  90.1864319 167.4665833  26.5425358
  90.2243500 168.5019684  26.2039471  89.1905594 167.2755737  26.9423695
  91.1065750 167.1592712  27.7281265  90.7146072 167.6599426  28.6134453
  91.1401749 166.0848236  27.9085121  92.5740204 167.7492828  27.5489712
  92.9911957 167.3641510  26.6185150  92.4987488 168.8358917  27.5075226
  93.5352936 167.3739319  28.6047802  93.6081009 166.3923492  28.8312378
  94.4456100 167.7350311  28.3577347  93.3050690 167.7863922  29.4975166
  88.6427612 167.6028900  23.9244289  88.1964722 168.6781616  24.2701321
  87.8060226 166.7100830  23.4228191  88.2550659 165.8809357  23.0608997
  86.3291855 166.7385559  23.5349274  86.0595016 167.1574860  24.5044003
  85.7318115 167.6822052  22.4595947  84.6903152 167.8145752  22.7526321
  86.1797714 168.6756897  22.4801178  85.7030334 167.0834808  21.0341492
  86.8309860 167.2403107  20.2242336  87.6908875 167.7545624  20.6273670
  86.7742996 166.8470612  18.8844624  87.5639572 167.0216827  18.1686764
  85.6267548 166.2420807  18.3641338  85.6475372 165.9345551  17.3290520
  84.5016327 166.0920563  19.1366482  83.6257248 165.6092377  18.7291222
  84.5190811 166.5239563  20.4617424  83.5971603 166.5558014  21.0233974
  85.8090057 165.2836761  23.5210304  86.5412369 164.3394012  23.2964745
  84.5047913 165.1080017  23.7070293  83.9899445 165.9397736  23.9584084
  83.7930527 163.8599091  23.6889725  84.5171280 163.1150665  23.3587990
  83.3320236 163.3906097  25.0185184  82.7350464 164.1743622  25.4848194
  82.7281876 162.4928741  24.8860340  84.3707428 163.0709534  26.0384560
  85.0006714 163.9091187  26.8394585  84.9703140 164.9826660  26.7255058
  85.7292404 163.3300018  27.8160839  86.4028931 163.8375702  28.3716679
  85.5907440 161.9610596  27.7128429  86.1427231 160.9228973  28.4904175
  86.7717361 161.1377716  29.3416367  85.9132462 159.5301361  28.0049744
  86.3291092 158.6514435  28.4754696  85.1795273 159.3073730  26.8051796
  85.0135727 158.3051605  26.4385376  84.6487503 160.4157715  26.0905075
  84.1498032 160.1465302  25.1712856  84.9017715 161.7900391  26.4756851
  82.5968018 163.9562378  22.7481270  81.7309341 164.7787781  22.9702225
  82.5523376 163.0907593  21.7437420  83.2854385 162.3974609  21.7882862
  81.5503464 162.9561005  20.7257347  80.8518143 163.7861023  20.8318596
  82.0009842 162.8159332  19.7431965  80.7780457 161.6986237  21.0816898
  81.0001984 160.5785980  20.5761318  79.7953796 161.8650818  22.0060959
  79.6471481 162.8266754  22.2771549  79.0025253 160.7244110  22.4456024
  79.6110229 159.8326263  22.5956993  78.6390457 160.9599762  23.9195232
  77.8676071 161.7291565  23.9560280  78.2785187 160.0424652  24.3845863
  79.7440643 161.5203400  24.8896275  80.0915985 162.4713135  24.4859600
  79.0387955 161.7958069  26.2300892  79.0843277 160.9872742  26.9596977
  79.6488571 162.5682220  26.6983662  77.9925079 162.0829468  26.1255360
  80.9159470 160.5342102  25.0353127  81.5605774 160.4440460  24.1609993
  81.5227890 160.8653107  25.8780556  80.6661911 159.4843903  25.1888885
  77.7116318 160.4017181  21.5817337  77.1862030 161.3532562  21.0131245
  77.2392426 159.1521301  21.4905262  77.6766968 158.3900452  21.9884758
  76.0554199 158.8325958  20.6895237  76.1285095 159.3596497  19.7382126
  76.2011795 157.3475037  20.2193756  75.2953949 156.9758911  19.7402592
  77.2747650 157.2123566  19.1559601  78.2304764 157.5561676  19.5515747
  77.4372711 156.1744232  18.8654709  77.0307083 157.7238007  18.2248497
  76.5763931 156.4985809  21.2503529  76.6090393 155.5841217  20.9600239
  74.7225113 159.1224976  21.3817482  74.3108063 158.4865723  22.3078079
  73.9286118 159.9852142  20.7068062  74.3483429 160.4514771  19.9152718
  72.6108170 160.4702759  21.2243500  72.7181854 160.8859711  22.2262306
  72.1371078 161.7158051  20.4950161  71.3228531 162.1614227  21.0664291
  73.0432892 162.3196259  20.4466019  71.6300507 161.2635956  19.0911579
  72.2719498 161.7624207  18.3650532  71.6195755 160.1881409  18.9139824
  70.2329636 161.7587738  18.7796955  70.1408691 162.7764587  19.1590939
  70.0953140 161.7490997  17.6984615  69.1681671 160.9569244  19.4368687
  68.9115143 161.0761719  20.4064083  68.3457947 160.1836090  18.7076759
  68.5070648 159.7224884  17.5170860  69.0672989 160.1770172  16.8102379
  67.6831360 159.2493286  17.1744900  67.2084045 159.8459625  19.2466164
  66.9239044 160.4178925  20.0289555  66.6189041 159.2576904  18.6751804
  71.4987411 159.4036255  21.2985439  70.4424133 159.6665955  21.8127537
  71.7980270 158.1645203  20.7807865  72.7300186 158.1621246  20.3915730
  70.9760208 156.9669189  20.6759834  69.9579315 157.2287903  20.3878536
  71.5220032 156.0357208  19.5988350  71.1227112 155.0235291  19.5344963
  71.2250595 156.4305420  18.6272163  72.9338226 155.9431000  19.7160645
  73.2614365 155.5296021  18.9140091  71.0321350 156.1632690  21.9814053
  70.0006180 155.7353363  22.4481773  72.2352371 155.9131012  22.5200462
  73.0544662 156.1449432  21.9767132  72.4944763 155.3012390  23.8384953
  71.7485809 154.5169067  23.9672394  73.9502182 154.7591248  23.8389378
  74.6842880 155.5371857  23.6295490  74.1576462 154.1396942  24.7115116
  74.0870285 154.1365509  22.9547443  72.3092041 156.3183289  25.0557308
  72.4717407 155.8692169  26.1486359  71.9555206 157.5974884  24.7816010
  71.6654892 157.8628693  23.8512497  71.8413391 158.5498810  25.8748932
  72.3517914 158.1885986  26.7676487  72.4663086 160.0146942  25.5021324
  71.9246445 160.3584900  24.6209373  72.1273499 160.7297211  26.2517509
  73.9966125 160.2005310  25.3733425  74.4324265 159.4535828  24.7098274
  74.3766479 161.5102692  24.6305561  73.8862152 162.3646088  25.0971107
  75.4449539 161.7254028  24.6539268  74.1193008 161.3426819  23.5847149
  74.7892380 160.2467346  26.6148376  74.4521790 159.3871613  27.1941624
  75.8165054 160.1635742  26.2600136  74.7047882 161.1249847  27.2548847
  70.3347855 158.7597656  26.3690147  69.4320526 158.8604126  25.5161839
  70.1278687 158.7656860  27.7229424  70.9600067 158.6857147  28.2897396
  68.8039169 158.8834991  28.3599625  68.0216217 159.1258545  27.6406708
  68.3023529 157.5921173  29.0983810  68.2396698 156.7557068  28.4022522
  69.1494293 157.3660431  29.7460384  66.9912109 157.7406769  29.8827858
  67.0804977 158.3739166  30.7654762  65.8002090 157.9932709  28.9314594
  65.8949814 157.3256989  28.0750294  64.8404312 157.7850952  29.4043083
  65.7820435 159.0261993  28.5838490  66.6720047 156.3821564  30.5550747
  67.4023132 156.1645355  31.3344269  65.6981430 156.4733276  31.0360928
  66.5070877 155.5571442  29.8620701  68.8268356 160.1952209  29.2691555
  69.4385452 160.2808685  30.3467331  68.0982208 161.2075653  28.8703041
  67.5365295 161.3739166  27.5401287  66.4849091 161.0908661  27.4946003
  68.1213379 160.8346710  26.7949390  67.7654266 162.8502655  27.2457371
  67.1104202 163.1629791  26.4325523  68.7810745 163.1247864  26.9607792
  67.2803650 163.4118195  28.6014824  66.1935272 163.3762512  28.5264568
  67.6554642 164.4156342  28.8008747  67.8247604 162.4725037  29.6306953
  68.7326431 162.9718933  29.9690151  66.9813385 162.4168854  30.9081402
  66.1315994 163.3234406  31.1135006  67.2988358 161.4800568  31.7874432
  68.0830460 160.8797607  31.5758457  66.8162231 161.3002930  33.1602631
  65.7389908 161.4654999  33.1796989  67.2716293 159.9070129  33.6232910
  66.8622360 159.1584625  32.9449310  68.3588333 159.8798523  33.6964073
  66.6360397 159.6307220  35.0270996  67.0590363 160.3645172  35.7131920
  65.5812683 159.8816528  34.9148483  66.8938675 158.3335571  35.6675682
  67.9237366 158.0138092  35.5087433  66.7119751 158.4034271  36.7400093
  65.9839325 157.2603455  35.1245499  65.7772064 157.4398041  34.1523590
  65.7473755 156.1559448  35.7191658  66.2140121 155.8332520  36.8386726
  66.8522339 156.4201355  37.3566971  65.8294373 155.0887451  37.4025002
  65.0514297 155.2494965  35.0910072  64.4081421 155.5117493  34.3578606
  64.7293930 154.4316406  35.5884781  67.3342056 162.3881836  34.0733185
  66.5400848 162.9270172  34.8368340  68.5590363 162.7072906  33.9841805
  89.1447906 149.0950470  10.6218529  88.4345245 149.8402405  11.2598925
  88.2013474 151.0850983  10.6253653  87.8708038 149.4612274  12.5690727
  87.4783096 152.0356293  11.2264814  87.0575638 149.9881897  13.4640818
  88.0308990 148.3148193  13.2637520  86.6630707 152.2896118  12.3554211
  86.5218964 151.2163696  13.4646654  87.0325928 148.9091187  14.2745323
  87.9772263 147.9436493  14.5804510  86.1143951 153.5582275  12.8227692
  85.7420425 151.8035126  14.5274124  85.3140335 153.9832306  13.8356590
  85.0585632 152.9888000  14.7758512  88.7345352 151.1662445   9.7676382
  84.8695297 155.2823639  13.8698254  84.8060684 156.2420502  12.6568298
  84.8810196 156.0578003  14.9443150  84.7265244 155.8735657  11.5157642
  84.8735428 157.6485291  12.9424810  84.9297562 157.2263336  15.1738253
  84.9842300 158.3720703  14.2335320  85.1064224 159.5699921  14.4226427
  84.9038315 158.2498016  12.1275339  84.1823425 153.1234283  15.7536392
  83.4805679 152.1225586  16.2594471  86.9613113 147.3061829  13.8519659
  86.0196838 146.2617035  13.7361698  85.0179520 146.2948914  12.7030430
  85.8759232 145.0691528  14.5328398  84.1359863 145.4108429  12.6458054
  84.9681931 144.2673950  14.3922281  84.0738602 144.5276031  13.5216808
