%VERSION  VERSION_STAMP = V0001.000  DATE = 09/07/26  17:50:36
%FLAG TITLE
%FORMAT(20a4)

%FLAG POINTERS
%FORMAT(10I8)
      37      11       5      36      10      49      23      73       0       0
     165       1      36      49      73      16      33      84       1       0
       0       0       0       0       0       0       0       3      37       0
       0
%FLAG ATOM_NAME
%FORMAT(20a4)
C1  N1  N2  C2  C3  C4  N3  N4  C5  H1  N5  H2  C6  C7  C8  C9  C10 C11 O1  C12 
N6  N7  C13 C14 C15 C16 H3  N8  H4  C17 C18 C19 N9  C20 C21 N10 H5  
%FLAG CHARGE
%FORMAT(5E16.8)
  4.05788754E+00 -3.57820372E+00 -3.57774816E+00  2.96905045E+00  2.98122295E+00
  2.85151662E+00 -4.50455256E+00 -3.34654362E+00  1.20598826E+00  3.01837822E+00
 -4.91562943E+00  2.86383489E+00  2.40727516E+00 -1.00627185E+00 -5.23526679E-01
  2.38650174E+00 -2.49918845E-01 -5.24310238E-01 -4.58320001E+00  6.00107717E+00
 -2.46915809E+00 -4.61951705E+00  6.03340353E-01  6.03340353E-01  1.58169564E-01
  1.58169564E-01  2.89173323E+00 -4.67208839E+00  3.00197815E+00  1.42334385E-01
 -3.53603731E-01  2.81702180E+00 -4.53994027E+00  5.94265648E-01  1.36211693E+00
 -2.62430276E+00  3.01331242E+00
%FLAG ATOMIC_NUMBER
%FORMAT(10I8)
       6       7       7       6       6       6       7       7       6       1
       7       1       6       6       6       6       6       6       8       6
       7       7       6       6       6       6       1       7       1       6
       6       6       7       6       6       7       1
%FLAG MASS
%FORMAT(5E16.8)
  1.20100000E+01  1.40100000E+01  1.40100000E+01  1.20100000E+01  1.20100000E+01
  1.20100000E+01  1.40100000E+01  1.40100000E+01  1.20100000E+01  1.00800000E+00
  1.40100000E+01  1.00800000E+00  1.20100000E+01  1.20100000E+01  1.20100000E+01
  1.20100000E+01  1.20100000E+01  1.20100000E+01  1.60000000E+01  1.20100000E+01
  1.40100000E+01  1.40100000E+01  1.20100000E+01  1.20100000E+01  1.20100000E+01
  1.20100000E+01  1.00800000E+00  1.40100000E+01  1.00800000E+00  1.20100000E+01
  1.20100000E+01  1.20100000E+01  1.40100000E+01  1.20100000E+01  1.20100000E+01
  1.40100000E+01  1.00800000E+00
%FLAG ATOM_TYPE_INDEX
%FORMAT(10I8)
       1       2       2       1       1       1       3       4       5       6
       3       6       7       5       5       7       5       5       8       9
      10      11       5       5       5       5       6       3       6       5
       5       7       3       5       5       4       6
%FLAG NUMBER_EXCLUDED_ATOMS
%FORMAT(10I8)
      12      11      10      10       7       7       3       3       1       1
       6       3      10       7       6       3       2       1       6       7
       6       3       3       2       1       1       1       4       2       4
       6       5       4       3       2       1       1
%FLAG NONBONDED_PARM_INDEX
%FORMAT(10I8)
       1       2       4       7      11      16      22      29      37      46
      56       2       3       5       8      12      17      23      30      38
      47      57       4       5       6       9      13      18      24      31
      39      48      58       7       8       9      10      14      19      25
      32      40      49      59      11      12      13      14      15      20
      26      33      41      50      60      16      17      18      19      20
      21      27      34      42      51      61      22      23      24      25
      26      27      28      35      43      52      62      29      30      31
      32      33      34      35      36      44      53      63      37      38
      39      40      41      42      43      44      45      54      64      46
      47      48      49      50      51      52      53      54      55      65
      56      57      58      59      60      61      62      63      64      65
      66
%FLAG RESIDUE_LABEL
%FORMAT(20a4)
MOL 
%FLAG RESIDUE_POINTER
%FORMAT(10I8)
       1
%FLAG BOND_FORCE_CONSTANT
%FORMAT(5E16.8)
  3.86484226E+02  3.19921128E+02  3.54254302E+02  3.11782983E+02  3.83532505E+02
  4.72490440E+02  6.36974187E+02  3.13240918E+02  3.36101816E+02  3.12404398E+02
  6.99127629E+02  5.90595124E+02  3.17459369E+02  3.36065966E+02  4.28895793E+02
  4.73589866E+02
%FLAG BOND_EQUIL_VALUE
%FORMAT(5E16.8)
  1.33920000E+00  1.39440000E+00  1.39860000E+00  1.40210000E+00  1.34140000E+00
  1.01370000E+00  1.20360000E+00  1.40070000E+00  1.41440000E+00  1.40150000E+00
  1.20950000E+00  1.21900000E+00  1.39670000E+00  1.37980000E+00  1.33000000E+00
  1.01320000E+00
%FLAG ANGLE_FORCE_CONSTANT
%FORMAT(5E16.8)
  8.31500956E+01  5.74605641E+01  7.63001912E+01  7.27605163E+01  7.42495220E+01
  6.81704111E+01  6.36699331E+01  6.73303059E+01  7.89101338E+01  6.74904398E+01
  7.40499522E+01  9.57349426E+01  5.87296845E+01  6.74199331E+01  5.71701721E+01
  6.08998566E+01  6.44801625E+01  7.68295889E+01  5.74294933E+01  6.37201243E+01
  9.15666826E+01  7.48601816E+01  8.66802103E+01  8.72096080E+01  6.95996654E+01
  5.73697419E+01  7.40499522E+01  7.79995220E+01  7.57002868E+01  6.02402008E+01
  7.84404876E+01  5.95602294E+01  6.79003346E+01
%FLAG ANGLE_EQUIL_VALUE
%FORMAT(5E16.8)
  2.04622402E+00  2.00241625E+00  2.23157798E+00  2.22180414E+00  2.04500228E+00
  2.14570778E+00  2.09474417E+00  2.10591428E+00  2.17433118E+00  2.10731054E+00
  2.66372150E+00  1.37278872E+00  2.05006374E+00  2.09945656E+00  2.00712864E+00
  2.23925743E+00  2.26561190E+00  2.22197867E+00  1.98670829E+00  2.04517682E+00
  1.20680791E+00  2.02667633E+00  2.13925006E+00  2.14762764E+00  2.04273336E+00
  2.04657308E+00  1.99613307E+00  3.09237437E+00  1.79227861E+00  3.13740386E+00
  2.18969008E+00  2.97473918E+00  2.44346095E+00
%FLAG DIHEDRAL_FORCE_CONSTANT
%FORMAT(5E16.8)
  4.80000000E+00  4.80000000E+00  4.80000000E+00  4.80000000E+00  1.05000000E+00
  1.05000000E+00  4.80000000E+00  1.05000000E+00  1.05000000E+00  3.62500000E+00
  3.62500000E+00  1.05000000E+00  1.05000000E+00  4.80000000E+00  1.05000000E+00
  1.05000000E+00  3.62500000E+00  3.62500000E+00  1.05000000E+00  1.05000000E+00
  3.62500000E+00  0.00000000E+00  0.00000000E+00  3.62500000E+00  0.00000000E+00
  0.00000000E+00  1.05000000E+00  1.05000000E+00  1.05000000E+00  1.05000000E+00
  0.00000000E+00  3.62500000E+00  3.62500000E+00  0.00000000E+00  4.80000000E+00
  4.80000000E+00  0.00000000E+00  0.00000000E+00  1.05000000E+00  1.05000000E+00
  0.00000000E+00  0.00000000E+00  2.50000000E+00  2.50000000E+00  0.00000000E+00
  1.65000000E+00  1.65000000E+00  0.00000000E+00  0.00000000E+00  1.65000000E+00
  1.65000000E+00  0.00000000E+00  0.00000000E+00  0.00000000E+00  2.50000000E+00
  2.50000000E+00  2.00000000E+00  2.50000000E+00  0.00000000E+00  0.00000000E+00
  2.50000000E+00  0.00000000E+00  0.00000000E+00  2.50000000E+00  2.50000000E+00
  0.00000000E+00  0.00000000E+00  0.00000000E+00  0.00000000E+00  0.00000000E+00
  0.00000000E+00  0.00000000E+00  1.05000000E+00  1.05000000E+00  0.00000000E+00
  0.00000000E+00  0.00000000E+00  0.00000000E+00  0.00000000E+00  1.05000000E+00
  1.05000000E+00  0.00000000E+00  1.10000000E+00  1.05000000E+01
%FLAG DIHEDRAL_PERIODICITY
%FORMAT(5E16.8)
  2.00000000E+00  2.00000000E+00  2.00000000E+00  2.00000000E+00  2.00000000E+00
  2.00000000E+00  2.00000000E+00  2.00000000E+00  2.00000000E+00  2.00000000E+00
  2.00000000E+00  2.00000000E+00  2.00000000E+00  2.00000000E+00  2.00000000E+00
  2.00000000E+00  2.00000000E+00  2.00000000E+00  2.00000000E+00  2.00000000E+00
  2.00000000E+00  3.00000000E+00  2.00000000E+00  2.00000000E+00  3.00000000E+00
  2.00000000E+00  2.00000000E+00  2.00000000E+00  2.00000000E+00  2.00000000E+00
  2.00000000E+00  2.00000000E+00  2.00000000E+00  2.00000000E+00  2.00000000E+00
  2.00000000E+00  2.00000000E+00  2.00000000E+00  2.00000000E+00  2.00000000E+00
  2.00000000E+00  2.00000000E+00  2.00000000E+00  2.00000000E+00  2.00000000E+00
  2.00000000E+00  2.00000000E+00  2.00000000E+00  2.00000000E+00  2.00000000E+00
  2.00000000E+00  2.00000000E+00  2.00000000E+00  2.00000000E+00  2.00000000E+00
  2.00000000E+00  1.00000000E+00  2.00000000E+00  2.00000000E+00  2.00000000E+00
  2.00000000E+00  2.00000000E+00  2.00000000E+00  2.00000000E+00  2.00000000E+00
  2.00000000E+00  2.00000000E+00  2.00000000E+00  2.00000000E+00  2.00000000E+00
  2.00000000E+00  2.00000000E+00  2.00000000E+00  2.00000000E+00  2.00000000E+00
  2.00000000E+00  2.00000000E+00  2.00000000E+00  2.00000000E+00  2.00000000E+00
  2.00000000E+00  2.00000000E+00  2.00000000E+00  2.00000000E+00
%FLAG DIHEDRAL_PHASE
%FORMAT(5E16.8)
  3.14159265E+00  3.14159265E+00  3.14159265E+00  3.14159265E+00  3.14159265E+00
  3.14159265E+00  3.14159265E+00  3.14159265E+00  3.14159265E+00  3.14159265E+00
  3.14159265E+00  3.14159265E+00  3.14159265E+00  3.14159265E+00  3.14159265E+00
  3.14159265E+00  3.14159265E+00  3.14159265E+00  3.14159265E+00  3.14159265E+00
  3.14159265E+00  3.14159265E+00  3.14159265E+00  3.14159265E+00  3.14159265E+00
  3.14159265E+00  3.14159265E+00  3.14159265E+00  3.14159265E+00  3.14159265E+00
  3.14159265E+00  3.14159265E+00  3.14159265E+00  3.14159265E+00  3.14159265E+00
  3.14159265E+00  3.14159265E+00  3.14159265E+00  3.14159265E+00  3.14159265E+00
  3.14159265E+00  3.14159265E+00  3.14159265E+00  3.14159265E+00  3.14159265E+00
  3.14159265E+00  3.14159265E+00  3.14159265E+00  3.14159265E+00  3.14159265E+00
  3.14159265E+00  3.14159265E+00  3.14159265E+00  3.14159265E+00  3.14159265E+00
  3.14159265E+00  0.00000000E+00  3.14159265E+00  3.14159265E+00  3.14159265E+00
  3.14159265E+00  3.14159265E+00  3.14159265E+00  3.14159265E+00  3.14159265E+00
  3.14159265E+00  3.14159265E+00  3.14159265E+00  3.14159265E+00  3.14159265E+00
  3.14159265E+00  3.14159265E+00  3.14159265E+00  3.14159265E+00  3.14159265E+00
  3.14159265E+00  3.14159265E+00  3.14159265E+00  3.14159265E+00  3.14159265E+00
  3.14159265E+00  3.14159265E+00  3.14159265E+00  3.14159265E+00
%FLAG SCEE_SCALE_FACTOR
%FORMAT(5E16.8)
  1.20000000E+00  1.20000000E+00  1.20000000E+00  1.20000000E+00  1.20000000E+00
  1.20000000E+00  1.20000000E+00  1.20000000E+00  1.20000000E+00  1.20000000E+00
  1.20000000E+00  1.20000000E+00  1.20000000E+00  1.20000000E+00  1.20000000E+00
  1.20000000E+00  1.20000000E+00  1.20000000E+00  1.20000000E+00  1.20000000E+00
  1.20000000E+00  1.20000000E+00  1.20000000E+00  1.20000000E+00  1.20000000E+00
  1.20000000E+00  1.20000000E+00  1.20000000E+00  1.20000000E+00  1.20000000E+00
  1.20000000E+00  1.20000000E+00  1.20000000E+00  1.20000000E+00  1.20000000E+00
  1.20000000E+00  1.20000000E+00  1.20000000E+00  1.20000000E+00  1.20000000E+00
  1.20000000E+00  1.20000000E+00  1.20000000E+00  1.20000000E+00  1.20000000E+00
  1.20000000E+00  1.20000000E+00  1.20000000E+00  1.20000000E+00  1.20000000E+00
  1.20000000E+00  1.20000000E+00  1.20000000E+00  1.20000000E+00  1.20000000E+00
  1.20000000E+00  1.20000000E+00  1.20000000E+00  1.20000000E+00  1.20000000E+00
  1.20000000E+00  1.20000000E+00  1.20000000E+00  1.20000000E+00  1.20000000E+00
  1.20000000E+00  1.20000000E+00  1.20000000E+00  1.20000000E+00  1.20000000E+00
  1.20000000E+00  1.20000000E+00  1.20000000E+00  1.20000000E+00  1.20000000E+00
  1.20000000E+00  1.20000000E+00  1.20000000E+00  1.20000000E+00  1.20000000E+00
  1.20000000E+00  1.20000000E+00  1.20000000E+00  1.20000000E+00
%FLAG SCNB_SCALE_FACTOR
%FORMAT(5E16.8)
  2.00000000E+00  2.00000000E+00  2.00000000E+00  2.00000000E+00  2.00000000E+00
  2.00000000E+00  2.00000000E+00  2.00000000E+00  2.00000000E+00  2.00000000E+00
  2.00000000E+00  2.00000000E+00  2.00000000E+00  2.00000000E+00  2.00000000E+00
  2.00000000E+00  2.00000000E+00  2.00000000E+00  2.00000000E+00  2.00000000E+00
  2.00000000E+00  2.00000000E+00  2.00000000E+00  2.00000000E+00  2.00000000E+00
  2.00000000E+00  2.00000000E+00  2.00000000E+00  2.00000000E+00  2.00000000E+00
  2.00000000E+00  2.00000000E+00  2.00000000E+00  2.00000000E+00  2.00000000E+00
  2.00000000E+00  2.00000000E+00  2.00000000E+00  2.00000000E+00  2.00000000E+00
  2.00000000E+00  2.00000000E+00  2.00000000E+00  2.00000000E+00  2.00000000E+00
  2.00000000E+00  2.00000000E+00  2.00000000E+00  2.00000000E+00  2.00000000E+00
  2.00000000E+00  2.00000000E+00  2.00000000E+00  2.00000000E+00  2.00000000E+00
  2.00000000E+00  2.00000000E+00  2.00000000E+00  2.00000000E+00  2.00000000E+00
  2.00000000E+00  2.00000000E+00  2.00000000E+00  2.00000000E+00  2.00000000E+00
  2.00000000E+00  2.00000000E+00  2.00000000E+00  2.00000000E+00  2.00000000E+00
  2.00000000E+00  2.00000000E+00  2.00000000E+00  2.00000000E+00  2.00000000E+00
  2.00000000E+00  2.00000000E+00  2.00000000E+00  2.00000000E+00  2.00000000E+00
  2.00000000E+00  2.00000000E+00  2.00000000E+00  2.00000000E+00
%FLAG SOLTY
%FORMAT(5E16.8)
  0.00000000E+00
%FLAG LENNARD_JONES_ACOEF
%FORMAT(5E16.8)
  6.96545115E+05  7.69641275E+05  8.49327582E+05  8.15694527E+05  9.01905191E+05
  9.54880555E+05  7.69641275E+05  8.49327582E+05  9.01905191E+05  8.49327582E+05
  1.18640136E+06  1.30700621E+06  1.39155010E+06  1.30700621E+06  2.00671567E+06
  1.71459471E+03  2.01478327E+03  1.94285864E+03  2.01478327E+03  3.37140766E+03
  1.34733940E-01  6.96545115E+05  7.69641275E+05  8.15694527E+05  7.69641275E+05
  1.18640136E+06  1.71459471E+03  6.96545115E+05  5.17504174E+05  5.74783275E+05
  6.04355085E+05  5.74783275E+05  8.92207105E+05  9.87865514E+02  5.17504174E+05
  3.76434052E+05  6.96545115E+05  7.69641275E+05  8.15694527E+05  7.69641275E+05
  1.18640136E+06  1.71459471E+03  6.96545115E+05  5.17504174E+05  6.96545115E+05
  7.01097287E+05  7.76652487E+05  8.19908426E+05  7.76652487E+05  1.20131742E+06
  1.52360008E+03  7.01097287E+05  5.15486025E+05  7.01097287E+05  7.02065601E+05
  6.99372601E+05  7.73421790E+05  8.18635244E+05  7.73421790E+05  1.19358739E+06
  1.65195389E+03  6.99372601E+05  5.17808959E+05  6.99372601E+05  7.02743436E+05
  7.01813610E+05
%FLAG LENNARD_JONES_BCOEF
%FORMAT(5E16.8)
  5.24666081E+02  5.44829545E+02  5.65408328E+02  6.34914250E+02  6.59538049E+02
  7.68190200E+02  5.44829545E+02  5.65408328E+02  6.59538049E+02  5.65408328E+02
  7.71957079E+02  8.00431688E+02  9.34909768E+02  8.00431688E+02  1.13185093E+03
  1.46824969E+01  1.57232188E+01  1.74776371E+01  1.57232188E+01  2.32109965E+01
  7.34122443E-02  5.24666081E+02  5.44829545E+02  6.34914250E+02  5.44829545E+02
  7.71957079E+02  1.46824969E+01  5.24666081E+02  4.98869731E+02  5.19386191E+02
  6.02863864E+02  5.19386191E+02  7.38468606E+02  1.22939079E+01  4.98869731E+02
  4.69349694E+02  5.24666081E+02  5.44829545E+02  6.34914250E+02  5.44829545E+02
  7.71957079E+02  1.46824969E+01  5.24666081E+02  4.98869731E+02  5.24666081E+02
  5.97109642E+02  6.20849622E+02  7.22088707E+02  6.20849622E+02  8.81176287E+02
  1.57004193E+01  5.97109642E+02  5.64800732E+02  5.97109642E+02  6.77813736E+02
  5.48896674E+02  5.70233340E+02  6.64086189E+02  5.70233340E+02  8.08411301E+02
  1.50468666E+01  5.48896674E+02  5.21006252E+02  5.48896674E+02  6.24153296E+02
  5.74083565E+02
%FLAG BONDS_INC_HYDROGEN
%FORMAT(10I8)
      18      27       6      30      33       6      63      78      16      81
      84       6      96     108       6
%FLAG BONDS_WITHOUT_HYDROGEN
%FORMAT(10I8)
       0       3       1       0       6       1       0      30       2       3
       9       1       6      12       1       9      15       3       9      81
       2      12      15       3      12      18       2      15      21       4
      18      24       5      21      24       7      30      45       8      36
      39       9      36      42       9      36      63      10      39      45
       9      42      48      11      45      51       9      48      51      11
      54      57      12      57      60      13      57      63      14      60
      66      15      60      69      15      66      72      11      69      75
      11      72      75      11      81      87       5      87      90      11
      90      93       9      93      96       8      93      99       9      96
     102       5      99     105       7     102     105       7
%FLAG ANGLES_INC_HYDROGEN
%FORMAT(10I8)
       0      30      33       2       9      81      84       2      12      18
      27       2      24      18      27      13      33      30      45      15
      36      63      78      19      57      63      78      26      84      81
      87      13      93      96     108      15     102      96     108      13
%FLAG ANGLES_WITHOUT_HYDROGEN
%FORMAT(10I8)
       0       3       9       1       0       6      12       1       0      30
      45       3       3       0       6       4       3       0      30       5
       3       9      15       6       3       9      81       5       6       0
      30       5       6      12      15       6       6      12      18       5
       9      15      12       7       9      15      21       8       9      81
      87       9      12      15      21       8      12      18      24       9
      15       9      81      10      15      12      18      10      15      21
      24      11      18      24      21      12      30      45      39      14
      30      45      51      14      36      39      45      16      36      42
      48      17      36      63      57      18      39      36      42      20
      39      36      63      21      39      45      51      20      42      36
      63      21      42      48      51      22      45      51      48      17
      54      57      60      23      54      57      63      24      57      60
      66      25      57      60      69      25      60      57      63      27
      60      66      72      28      60      69      75      28      66      60
      69      29      66      72      75      22      69      75      72      22
      81      87      90      30      87      90      93      17      90      93
      96      14      90      93      99      20      93      96     102      31
      93      99     105      32      96      93      99      14      96     102
     105      12      99     105     102      33
%FLAG DIHEDRALS_INC_HYDROGEN
%FORMAT(10I8)
       3       0      30      33       8       3       9      81      84      12
       6       0      30      33      15       6      12      18      27      20
      15       9      81      84      27      15      12      18      27      30
      21      24      18      27      34      33      30      45      39      39
      33      30      45      51      40      39      36      63      78      47
      42      36      63      78      51      54      57     -63      78      57
      54      57      63      78      58      60      57      63      78      61
      84      81      87      90      70      90      93      96     108      74
      99      93      96     108      81     105     102      96     108      82
       0      45     -30     -33      83      24      12     -18     -27      83
      57      36     -63     -78      83      87       9     -81     -84      83
     102      93     -96    -108      83
%FLAG DIHEDRALS_WITHOUT_HYDROGEN
%FORMAT(10I8)
       0       3       9      15       1       0       3       9      81       2
       0       6     -12      15       3       0       6      12      18       4
       0      30      45      39       5       0      30      45      51       6
       3       0       6      12       7       3       0      30      45       9
       3       9     -15      12      10       3       9      15      21      11
       3       9      81      87      13       6       0       3       9      14
       6       0      30      45      16       6      12     -15       9      17
       6      12      15      21      18       6      12      18      24      19
       9      15      12      18      21       9      15      21      24      22
       9      81      87      90      23      12      15       9      81      24
      12      15     -21      24      25      12      18     -24      21      26
      15       9      81      87      28      15      12     -18      24      29
      15      21     -24      18      31      18      12     -15      21      32
      21      15       9      81      33      30       0       3       9      35
      30       0       6      12      36      30      45      39      36      37
      30      45      51      48      38      36      39      45      51      41
      36      42     -48      51      42      36      63      57      54      43
      36      63      57      60      44      39      36      42      48      45
      39      36      63      57      46      39      45     -51      48      48
      42      36      39      45      49      42      36      63      57      50
      42      48     -51      45      52      45      39      36      63      53
      48      42      36      63      54      54      57      60      66      55
      54      57      60      69      56      57      60      66      72      59
      57      60      69      75      60      60      66     -72      75      62
      60      69     -75      72      63      63      57      60      66      64
      63      57      60      69      65      66      60     -69      75      66
      66      72     -75      69      67      69      60     -66      72      68
      81      87      90      93      69      87      90      93      96      71
      87      90      93      99      72      90      93      96     102      73
      90      93      99     105      75      93      96    -102     105      76
      93      99    -105     102      77      96      93     -99     105      78
      96     102    -105      99      79      99      93     -96     102      80
       9      12     -15     -21      83      15       3      -9     -81      83
      15       6     -12     -18      83      30       0      -6      -3      83
      39      42     -36     -63      83      39      51     -45     -30      83
      57      66     -60     -69      83      60      63     -57     -54      84
      90      99     -93     -96      83
%FLAG EXCLUDED_ATOMS_LIST
%FORMAT(10I8)
       2       3       4       5       6       7      11      12      14      16
      18      28       3       4       5       6       8      11      12      16
      28      29      30       4       5       6       7       8       9      10
      11      12      16       5       6       7       8       9      11      28
      29      30      31       6       7       8       9      10      11      28
       7       8       9      10      28      29      30       8       9      10
       9      10      28      10       0      12      13      14      16      17
      18      14      16      18      14      15      16      17      18      19
      20      21      22      27      15      16      17      18      20      22
      27      16      17      18      20      22      27      17      18      22
      18      22       0      20      21      22      23      24      27      21
      22      23      24      25      26      27      22      23      24      25
      26      27      23      24      27      24      25      26      25      26
      26       0       0      29      30      31      32      30      31      31
      32      33      34      32      33      34      35      36      37      33
      34      35      36      37      34      35      36      37      35      36
      37      36      37      37       0
%FLAG HBOND_ACOEF
%FORMAT(5E16.8)

%FLAG HBOND_BCOEF
%FORMAT(5E16.8)

%FLAG HBCUT
%FORMAT(5E16.8)

%FLAG AMBER_ATOM_TYPE
%FORMAT(20a4)
ca  nb  nb  ca  ca  ca  nu  ne  c1  hn  nu  hn  ce  c1  c1  ce  c1  c1  o   c   
n   ns  c1  c1  c1  c1  hn  nu  hn  c1  c1  ce  nu  c1  c1  ne  hn  
%FLAG TREE_CHAIN_CLASSIFICATION
%FORMAT(20a4)
BLA BLA BLA BLA BLA BLA BLA BLA BLA BLA BLA BLA BLA BLA BLA BLA BLA BLA BLA BLA 
BLA BLA BLA BLA BLA BLA BLA BLA BLA BLA BLA BLA BLA BLA BLA BLA BLA 
%FLAG JOIN_ARRAY
%FORMAT(10I8)
       0       0       0       0       0       0       0       0       0       0
       0       0       0       0       0       0       0       0       0       0
       0       0       0       0       0       0       0       0       0       0
       0       0       0       0       0       0       0
%FLAG IROTAT
%FORMAT(10I8)
       0       0       0       0       0       0       0       0       0       0
       0       0       0       0       0       0       0       0       0       0
       0       0       0       0       0       0       0       0       0       0
       0       0       0       0       0       0       0
%FLAG SOLVENT_POINTERS
%FORMAT(3I8)
       1       1       2
%FLAG ATOMS_PER_MOLECULE
%FORMAT(10I8)
      37
%FLAG BOX_DIMENSIONS
%FORMAT(5E16.8)
  6.00000000E+01  8.05630000E+01  8.05630000E+01  8.05630000E+01
%FLAG RADIUS_SET
%FORMAT(1a80)
0                                                                               
%FLAG RADII
%FORMAT(5E16.8)
  1.70000000E+00  1.55000000E+00  1.55000000E+00  1.70000000E+00  1.70000000E+00
  1.70000000E+00  1.55000000E+00  1.55000000E+00  1.70000000E+00  1.30000000E+00
  1.55000000E+00  1.30000000E+00  1.70000000E+00  1.70000000E+00  1.70000000E+00
  1.70000000E+00  1.70000000E+00  1.70000000E+00  1.50000000E+00  1.70000000E+00
  1.55000000E+00  1.55000000E+00  1.70000000E+00  1.70000000E+00  1.70000000E+00
  1.70000000E+00  1.30000000E+00  1.55000000E+00  1.30000000E+00  1.70000000E+00
  1.70000000E+00  1.70000000E+00  1.55000000E+00  1.70000000E+00  1.70000000E+00
  1.55000000E+00  1.30000000E+00
%FLAG SCREEN
%FORMAT(5E16.8)
  7.20000000E-01  7.90000000E-01  7.90000000E-01  7.20000000E-01  7.20000000E-01
  7.20000000E-01  7.90000000E-01  7.90000000E-01  7.20000000E-01  8.50000000E-01
  7.90000000E-01  8.50000000E-01  7.20000000E-01  7.20000000E-01  7.20000000E-01
  7.20000000E-01  7.20000000E-01  7.20000000E-01  8.50000000E-01  7.20000000E-01
  7.90000000E-01  7.90000000E-01  7.20000000E-01  7.20000000E-01  7.20000000E-01
  7.20000000E-01  8.50000000E-01  7.90000000E-01  8.50000000E-01  7.20000000E-01
  7.20000000E-01  7.20000000E-01  7.90000000E-01  7.20000000E-01  7.20000000E-01
  7.90000000E-01  8.50000000E-01
%FLAG IPOL
%FORMAT(1I8)
       0
